/*--------------------------------*- C++ -*----------------------------------*\
| =========                 |                                                 |
| \\      /  F ield         | OpenFOAM: The Open Source CFD Toolbox           |
|  \\    /   O peration     | Version:  v1906                                 |
|   \\  /    A nd           | Web:      www.OpenFOAM.com                      |
|    \\/     M anipulation  |                                                 |
\*---------------------------------------------------------------------------*/
FoamFile
{
    version     2.0;
    format      ascii;
    class       volScalarField;
    location    "950";
    object      alphat;
}
// * * * * * * * * * * * * * * * * * * * * * * * * * * * * * * * * * * * * * //

dimensions      [1 -1 -1 0 0 0 0];


internalField   nonuniform List<scalar> 
78750
(
4.78039e-08
1.775e-06
2.2284e-06
2.35911e-06
2.45446e-06
2.55195e-06
2.64586e-06
2.72686e-06
2.79397e-06
2.84934e-06
2.89531e-06
2.93407e-06
2.96789e-06
2.99911e-06
3.02937e-06
3.06011e-06
3.09346e-06
3.13011e-06
3.16815e-06
3.21101e-06
3.25639e-06
3.30543e-06
3.35537e-06
3.40422e-06
3.45048e-06
3.49466e-06
3.53851e-06
3.58222e-06
3.63323e-06
3.65054e-06
3.49507e-06
2.85792e-06
2.29003e-06
1.43779e-06
2.77782e-08
1.05515e-07
3.98605e-06
1.8104e-06
2.14291e-06
3.73906e-06
6.69432e-06
6.40064e-06
6.1019e-06
5.81597e-06
5.55591e-06
5.32542e-06
5.1273e-06
4.91252e-06
4.64114e-06
4.3813e-06
4.07271e-06
3.68374e-06
3.23165e-06
2.7788e-06
2.41335e-06
2.31083e-06
2.52854e-06
3.09626e-06
4.31165e-06
6.16154e-06
7.12537e-06
5.6946e-06
4.64701e-06
4.66547e-06
4.93468e-06
5.47864e-06
6.59439e-06
9.89741e-06
4.49724e-06
8.07193e-08
1.2791e-07
5.84347e-06
1.81526e-06
1.38e-06
1.59288e-06
2.23253e-06
3.13044e-06
3.93281e-06
4.97644e-06
4.88923e-06
4.82626e-06
4.79429e-06
4.77573e-06
4.75829e-06
4.73435e-06
4.69657e-06
4.63766e-06
4.55615e-06
4.45804e-06
4.35135e-06
4.25636e-06
3.32335e-06
2.66862e-06
2.9003e-06
3.17849e-06
3.90103e-06
6.42713e-06
7.76624e-06
4.28522e-06
3.30613e-06
3.45762e-06
4.3757e-06
8.06286e-06
7.26284e-06
1.07391e-07
1.3879e-07
4.28016e-06
2.37831e-06
1.45827e-06
1.38179e-06
1.65367e-06
2.28945e-06
3.32168e-06
4.4384e-06
5.26968e-06
5.43434e-06
5.5894e-06
5.71048e-06
5.77405e-06
5.76999e-06
5.70536e-06
5.56825e-06
5.35867e-06
5.08094e-06
4.75197e-06
4.44318e-06
3.9587e-06
3.46292e-06
3.63015e-06
4.91689e-06
6.5363e-06
8.60627e-06
7.22302e-06
5.69781e-06
5.37608e-06
5.59613e-06
6.92721e-06
1.20773e-05
8.18383e-06
1.30325e-07
1.4347e-07
3.51848e-06
2.76053e-06
1.49325e-06
1.30671e-06
1.45881e-06
2.00566e-06
2.87628e-06
4.10671e-06
6.60996e-06
8.35418e-06
8.89203e-06
9.22258e-06
9.31474e-06
9.18937e-06
8.86441e-06
8.37387e-06
7.7245e-06
6.91009e-06
5.10592e-06
3.84803e-06
3.85367e-06
5.10929e-06
8.69821e-06
1.55782e-05
2.0934e-05
1.39233e-05
1.0366e-05
8.04204e-06
7.49907e-06
8.68787e-06
1.12143e-05
1.84721e-05
7.40116e-06
1.5506e-07
1.49235e-07
2.91122e-06
3.64703e-06
1.71554e-06
1.38928e-06
1.47983e-06
1.99665e-06
3.14429e-06
4.78038e-06
7.65881e-06
1.28174e-05
1.37611e-05
1.43657e-05
1.4622e-05
1.472e-05
1.19656e-05
9.44244e-06
8.08252e-06
8.50979e-06
1.15736e-05
1.62241e-05
2.53924e-05
3.40456e-05
3.03247e-05
1.81786e-05
1.46912e-05
1.0812e-05
9.51694e-06
1.12008e-05
1.32743e-05
1.60088e-05
1.96708e-05
2.0593e-05
6.06453e-06
1.6113e-07
1.48926e-07
2.61237e-06
4.68698e-06
1.95406e-06
1.49718e-06
1.60457e-06
2.31432e-06
3.84898e-06
6.79101e-06
1.39417e-05
2.00294e-05
2.20837e-05
2.02157e-05
1.45194e-05
1.1669e-05
1.18531e-05
1.47112e-05
1.95885e-05
2.83146e-05
4.193e-05
4.48538e-05
3.10262e-05
2.07134e-05
1.74993e-05
1.19557e-05
1.11488e-05
1.50921e-05
1.76783e-05
1.96701e-05
2.13504e-05
2.30841e-05
2.3364e-05
1.79467e-05
5.28961e-06
1.67079e-07
1.48909e-07
2.41308e-06
5.99974e-06
2.32117e-06
1.74205e-06
1.91571e-06
2.84075e-06
5.39795e-06
1.12967e-05
2.16894e-05
2.27529e-05
1.63556e-05
1.45651e-05
1.55725e-05
1.84323e-05
2.47835e-05
3.59987e-05
4.61267e-05
4.85496e-05
3.76683e-05
2.27626e-05
1.91509e-05
1.33261e-05
1.28435e-05
1.86717e-05
2.27439e-05
2.43828e-05
2.52158e-05
2.65811e-05
2.81808e-05
2.92951e-05
2.79647e-05
1.81982e-05
5.07613e-06
1.83078e-07
1.48499e-07
2.32633e-06
7.05701e-06
2.67614e-06
2.01493e-06
2.32174e-06
3.67483e-06
7.91222e-06
1.97161e-05
2.70231e-05
2.2424e-05
1.87753e-05
1.92274e-05
2.3465e-05
3.17753e-05
4.48346e-05
4.68741e-05
4.89603e-05
3.41122e-05
1.99974e-05
1.82598e-05
1.55287e-05
1.59058e-05
2.24353e-05
2.52831e-05
2.61892e-05
2.68442e-05
2.85225e-05
3.0833e-05
3.28047e-05
3.43289e-05
3.297e-05
2.00382e-05
5.27655e-06
2.20514e-07
1.48709e-07
2.26385e-06
7.9744e-06
3.05292e-06
2.33631e-06
2.78995e-06
4.57114e-06
1.0274e-05
2.51421e-05
2.80197e-05
2.67437e-05
2.25993e-05
2.46152e-05
3.22163e-05
4.23782e-05
4.43754e-05
4.62866e-05
3.52405e-05
2.19832e-05
2.02327e-05
1.79158e-05
1.71189e-05
2.06445e-05
2.27723e-05
2.36041e-05
2.45339e-05
2.6127e-05
2.83674e-05
3.0989e-05
3.35385e-05
3.57147e-05
3.44214e-05
2.00023e-05
5.29627e-06
2.55534e-07
1.46833e-07
2.22092e-06
8.95466e-06
3.50059e-06
2.65084e-06
3.15558e-06
5.05381e-06
1.08302e-05
2.55743e-05
2.81161e-05
3.0853e-05
2.84058e-05
2.94028e-05
3.73327e-05
4.09204e-05
4.27079e-05
4.44215e-05
2.86465e-05
2.09881e-05
2.06217e-05
1.91492e-05
1.809e-05
1.99809e-05
2.14252e-05
2.27445e-05
2.42926e-05
2.62638e-05
2.85854e-05
3.11953e-05
3.39593e-05
3.6614e-05
3.54418e-05
2.01585e-05
5.43126e-06
2.77935e-07
1.39322e-07
2.14077e-06
9.29661e-06
4.28579e-06
3.03925e-06
3.3637e-06
4.91149e-06
9.32078e-06
2.34498e-05
2.731e-05
2.96373e-05
3.20932e-05
3.22361e-05
3.69298e-05
3.90598e-05
4.11141e-05
4.22724e-05
2.80254e-05
2.16163e-05
2.14686e-05
1.99084e-05
1.8727e-05
2.05107e-05
2.22154e-05
2.3683e-05
2.52703e-05
2.71519e-05
2.93842e-05
3.21991e-05
3.57805e-05
3.97543e-05
3.93176e-05
2.20595e-05
5.82814e-06
2.91498e-07
1.28409e-07
2.05392e-06
8.62843e-06
5.25418e-06
3.46493e-06
3.4929e-06
4.60072e-06
7.85118e-06
1.79335e-05
2.60746e-05
2.82918e-05
3.07268e-05
3.1598e-05
3.58362e-05
3.82942e-05
4.0773e-05
3.89506e-05
2.75839e-05
2.28635e-05
2.36876e-05
2.22531e-05
2.06299e-05
2.21218e-05
2.35013e-05
2.42766e-05
2.49184e-05
2.61236e-05
2.83121e-05
3.13735e-05
3.59915e-05
4.1007e-05
4.09989e-05
2.28298e-05
6.01091e-06
3.0851e-07
1.17068e-07
1.97864e-06
7.84224e-06
6.35581e-06
3.97646e-06
3.67339e-06
4.47666e-06
7.16075e-06
1.55629e-05
2.51556e-05
2.74003e-05
2.99554e-05
3.12921e-05
3.55288e-05
3.83126e-05
4.11545e-05
3.73871e-05
2.88249e-05
2.50156e-05
2.59813e-05
2.44601e-05
2.2509e-05
2.34464e-05
2.41034e-05
2.42998e-05
2.4619e-05
2.51278e-05
2.66155e-05
3.00593e-05
3.55133e-05
4.14153e-05
4.17596e-05
2.32628e-05
6.21329e-06
3.32067e-07
1.05425e-07
1.90148e-06
6.99638e-06
7.40886e-06
4.46411e-06
3.92255e-06
4.50714e-06
6.85682e-06
1.43477e-05
2.44757e-05
2.67726e-05
2.94576e-05
3.20144e-05
3.53916e-05
3.84098e-05
4.14966e-05
3.62385e-05
2.98318e-05
2.71344e-05
2.83402e-05
2.69176e-05
2.46633e-05
2.47581e-05
2.45661e-05
2.4199e-05
2.39905e-05
2.41748e-05
2.55129e-05
2.90438e-05
3.53355e-05
4.28979e-05
4.47061e-05
2.52338e-05
6.63491e-06
3.56623e-07
9.3697e-08
1.84233e-06
6.51368e-06
8.55724e-06
5.13945e-06
4.26575e-06
4.73219e-06
7.05153e-06
1.43809e-05
2.41834e-05
2.65436e-05
2.84109e-05
3.19537e-05
3.55649e-05
3.88601e-05
4.14977e-05
3.57362e-05
3.13685e-05
2.96717e-05
3.1336e-05
2.98632e-05
2.69237e-05
2.61101e-05
2.50287e-05
2.38727e-05
2.28741e-05
2.23607e-05
2.35381e-05
2.75577e-05
3.50065e-05
4.4112e-05
4.68951e-05
2.6706e-05
6.90393e-06
3.80028e-07
8.39204e-08
1.80924e-06
6.32414e-06
9.43601e-06
5.78879e-06
4.70234e-06
5.25054e-06
7.97803e-06
1.58552e-05
2.41961e-05
2.66692e-05
2.81044e-05
3.28717e-05
3.65025e-05
4.01081e-05
3.97623e-05
3.66959e-05
3.43003e-05
3.35741e-05
3.42953e-05
3.43163e-05
3.05966e-05
2.74705e-05
2.59054e-05
2.39238e-05
2.19646e-05
2.08585e-05
2.11985e-05
2.46647e-05
3.28179e-05
4.3514e-05
4.74383e-05
2.73097e-05
7.0244e-06
4.18626e-07
7.59039e-08
1.78143e-06
6.18798e-06
9.99065e-06
6.3936e-06
5.27164e-06
6.05098e-06
9.46918e-06
1.77237e-05
2.47936e-05
2.71817e-05
2.98435e-05
3.42159e-05
3.78494e-05
3.94471e-05
3.89695e-05
3.76623e-05
3.68075e-05
3.66692e-05
3.68753e-05
3.7945e-05
3.52505e-05
3.08921e-05
2.79445e-05
2.46112e-05
2.13246e-05
1.92114e-05
1.93063e-05
2.23315e-05
2.95195e-05
4.14758e-05
4.89364e-05
2.95177e-05
7.34037e-06
4.76503e-07
6.91851e-08
1.75673e-06
6.08501e-06
1.04947e-05
7.09503e-06
6.01841e-06
7.12467e-06
1.13891e-05
1.92027e-05
2.48058e-05
2.75763e-05
3.07322e-05
3.41317e-05
3.64317e-05
3.74457e-05
3.73283e-05
3.70765e-05
3.74286e-05
3.8342e-05
3.93927e-05
4.07436e-05
3.78317e-05
3.21448e-05
2.73918e-05
2.32639e-05
2.02955e-05
1.89402e-05
1.93871e-05
2.20905e-05
2.81778e-05
3.88348e-05
4.84809e-05
3.04882e-05
7.62134e-06
5.26648e-07
6.45145e-08
1.71977e-06
5.80764e-06
1.09365e-05
7.84093e-06
6.95156e-06
8.57287e-06
1.30429e-05
1.94402e-05
2.3958e-05
2.71266e-05
3.02119e-05
3.30056e-05
3.53189e-05
3.656e-05
3.72611e-05
3.81532e-05
3.93108e-05
4.03099e-05
4.07208e-05
4.12634e-05
3.6168e-05
2.88576e-05
2.39021e-05
2.05371e-05
1.89742e-05
1.92262e-05
2.10457e-05
2.45894e-05
3.07271e-05
4.01695e-05
4.75241e-05
2.98842e-05
7.77775e-06
5.30823e-07
6.29184e-08
1.68367e-06
5.56211e-06
1.10342e-05
8.76594e-06
8.32963e-06
1.02135e-05
1.45134e-05
1.96039e-05
2.32682e-05
2.62648e-05
2.96094e-05
3.28996e-05
3.56285e-05
3.75617e-05
3.90659e-05
4.05396e-05
4.18616e-05
4.23038e-05
4.06759e-05
3.86898e-05
2.86318e-05
2.08289e-05
1.84652e-05
1.82521e-05
1.93826e-05
2.17061e-05
2.53571e-05
3.05559e-05
3.73062e-05
4.45812e-05
4.72967e-05
2.87899e-05
7.80173e-06
5.14894e-07
6.46241e-08
1.68469e-06
5.40944e-06
1.10195e-05
1.00956e-05
9.97638e-06
1.2288e-05
1.6516e-05
2.06404e-05
2.40224e-05
2.7631e-05
3.18053e-05
3.59946e-05
3.95725e-05
4.24636e-05
4.49415e-05
4.68991e-05
4.73055e-05
4.39221e-05
3.59114e-05
2.9914e-05
1.98472e-05
1.60041e-05
1.71891e-05
1.88576e-05
2.11621e-05
2.47068e-05
2.98653e-05
3.64317e-05
4.32877e-05
4.82592e-05
4.67917e-05
2.67413e-05
7.68454e-06
4.99337e-07
6.82864e-08
1.64848e-06
5.09452e-06
1.07645e-05
1.14413e-05
1.22514e-05
1.50278e-05
1.89071e-05
2.25247e-05
2.6182e-05
3.05557e-05
3.5493e-05
4.03352e-05
4.45738e-05
4.82564e-05
5.13025e-05
5.248e-05
4.78079e-05
3.58166e-05
2.96705e-05
2.09351e-05
1.52737e-05
1.51926e-05
1.73341e-05
1.97789e-05
2.28267e-05
2.73604e-05
3.35038e-05
4.07653e-05
4.77368e-05
5.18762e-05
4.80737e-05
2.56419e-05
7.58415e-06
5.07302e-07
6.9171e-08
1.60262e-06
4.77256e-06
1.03796e-05
1.26479e-05
1.45122e-05
1.76134e-05
2.12288e-05
2.48883e-05
2.90707e-05
3.4028e-05
3.93739e-05
4.4515e-05
4.91333e-05
5.31088e-05
5.58874e-05
5.45039e-05
4.43906e-05
3.08426e-05
2.49283e-05
1.76642e-05
1.45737e-05
1.57959e-05
1.75204e-05
1.95334e-05
2.23421e-05
2.68914e-05
3.366e-05
4.21604e-05
5.02417e-05
5.48454e-05
5.07585e-05
2.63784e-05
7.7017e-06
5.48548e-07
6.8203e-08
1.53614e-06
4.35369e-06
1.0011e-05
1.36295e-05
1.61608e-05
1.92452e-05
2.26144e-05
2.63845e-05
3.1024e-05
3.64939e-05
4.22481e-05
4.77448e-05
5.27025e-05
5.70759e-05
6.00748e-05
5.77147e-05
4.47383e-05
3.01565e-05
2.4833e-05
1.87576e-05
1.54225e-05
1.60894e-05
1.7495e-05
1.88337e-05
2.03289e-05
2.29646e-05
2.85564e-05
3.87175e-05
4.85679e-05
5.27152e-05
4.96966e-05
2.63311e-05
7.73118e-06
5.97951e-07
6.23334e-08
1.48851e-06
4.08176e-06
9.40063e-06
1.43029e-05
1.7666e-05
2.07065e-05
2.39157e-05
2.78923e-05
3.27659e-05
3.84499e-05
4.45437e-05
5.0659e-05
5.67515e-05
6.28249e-05
6.84481e-05
7.0344e-05
5.86946e-05
3.70417e-05
2.44142e-05
2.12156e-05
1.87461e-05
1.6705e-05
1.71945e-05
1.80528e-05
1.84352e-05
1.93888e-05
2.21024e-05
2.74046e-05
3.79874e-05
4.89155e-05
4.59691e-05
2.51134e-05
7.51105e-06
7.08723e-07
5.02196e-08
1.38278e-06
3.57102e-06
8.17399e-06
1.34147e-05
1.70847e-05
2.04776e-05
2.39069e-05
2.79058e-05
3.28791e-05
3.8409e-05
4.41976e-05
5.0114e-05
5.62268e-05
6.23989e-05
6.80465e-05
7.09366e-05
6.81112e-05
5.19571e-05
3.45979e-05
2.40554e-05
2.31806e-05
2.27245e-05
2.03558e-05
1.97778e-05
1.81036e-05
1.53209e-05
1.39414e-05
1.61725e-05
2.288e-05
3.41213e-05
4.82652e-05
3.03426e-05
8.11162e-06
1.12429e-06
3.33633e-08
1.23286e-06
2.98759e-06
6.6693e-06
1.21391e-05
1.64835e-05
1.96377e-05
2.26417e-05
2.57715e-05
2.96032e-05
3.33942e-05
3.6989e-05
4.0307e-05
4.32904e-05
4.5764e-05
4.72016e-05
4.67694e-05
4.35029e-05
3.73468e-05
3.08531e-05
2.46835e-05
2.67298e-05
2.81524e-05
2.46616e-05
2.36093e-05
2.1852e-05
2.0372e-05
1.61462e-05
1.24535e-05
1.26139e-05
1.78367e-05
3.36351e-05
4.02744e-05
9.07608e-06
1.39083e-06
2.2223e-08
1.19553e-06
2.73996e-06
5.85755e-06
1.10015e-05
1.57449e-05
1.89032e-05
2.15434e-05
2.36527e-05
2.57827e-05
2.82207e-05
3.03733e-05
3.21507e-05
3.35012e-05
3.42769e-05
3.427e-05
3.32562e-05
3.13491e-05
2.88107e-05
2.49336e-05
1.96508e-05
2.10379e-05
2.17072e-05
1.81575e-05
1.85101e-05
1.96502e-05
2.08195e-05
2.14917e-05
2.05195e-05
1.85232e-05
1.89897e-05
2.4513e-05
3.94027e-05
9.91566e-06
1.34512e-06
2.18906e-08
1.34817e-06
3.01953e-06
5.97105e-06
1.076e-05
1.59581e-05
1.95424e-05
2.18642e-05
2.36139e-05
2.50725e-05
2.65527e-05
2.78184e-05
2.86928e-05
2.91451e-05
2.91972e-05
2.86246e-05
2.74114e-05
2.55438e-05
2.30138e-05
2.0596e-05
1.99061e-05
2.08917e-05
2.07597e-05
1.97537e-05
1.99614e-05
2.1312e-05
2.3372e-05
2.57529e-05
2.79296e-05
2.88733e-05
3.04733e-05
3.92078e-05
3.63008e-05
8.7296e-06
9.04597e-07
2.83836e-08
1.52245e-06
3.44925e-06
6.65755e-06
1.16114e-05
1.66938e-05
2.03173e-05
2.28516e-05
2.48904e-05
2.68095e-05
2.85931e-05
3.03199e-05
3.18144e-05
3.29403e-05
3.34361e-05
3.31542e-05
3.21843e-05
3.03106e-05
2.78124e-05
2.76448e-05
1.98346e-05
1.57555e-05
1.60601e-05
1.67384e-05
1.79207e-05
1.96343e-05
2.24605e-05
2.66998e-05
3.20474e-05
3.83024e-05
4.35096e-05
4.36049e-05
2.59919e-05
7.44562e-06
7.21692e-07
3.96144e-08
1.67058e-06
4.06226e-06
7.8167e-06
1.26351e-05
1.7255e-05
2.09817e-05
2.4081e-05
2.68714e-05
2.9609e-05
3.24913e-05
3.5573e-05
3.90184e-05
4.27351e-05
4.66015e-05
4.82023e-05
4.20429e-05
2.92148e-05
2.29247e-05
1.91667e-05
1.23275e-05
1.13008e-05
1.44453e-05
1.6979e-05
1.99055e-05
2.41594e-05
2.91196e-05
3.43856e-05
4.10263e-05
4.68347e-05
4.88259e-05
4.22531e-05
2.08712e-05
6.85663e-06
7.24331e-07
4.38407e-08
1.73114e-06
4.49545e-06
8.98928e-06
1.40548e-05
1.81935e-05
2.13385e-05
2.42151e-05
2.70859e-05
3.00858e-05
3.33292e-05
3.67344e-05
3.99747e-05
4.22477e-05
4.31459e-05
4.03792e-05
3.21843e-05
2.24396e-05
1.64163e-05
1.21887e-05
1.10027e-05
1.2653e-05
1.54302e-05
1.91729e-05
2.36793e-05
2.85224e-05
3.35901e-05
3.9848e-05
4.63282e-05
5.22244e-05
5.55217e-05
4.91102e-05
2.36011e-05
7.28088e-06
8.99924e-07
4.38085e-08
1.80418e-06
4.79512e-06
9.79645e-06
1.52323e-05
1.92014e-05
2.20063e-05
2.45437e-05
2.68756e-05
2.8957e-05
3.07796e-05
3.2374e-05
3.35107e-05
3.37606e-05
3.03177e-05
2.18523e-05
1.49692e-05
1.18127e-05
1.15929e-05
1.21541e-05
1.36432e-05
1.65438e-05
2.01791e-05
2.45407e-05
2.91802e-05
3.32571e-05
3.66863e-05
4.01577e-05
4.4997e-05
5.11273e-05
5.4082e-05
4.84666e-05
2.38351e-05
7.31997e-06
8.99466e-07
5.08066e-08
1.90153e-06
5.15113e-06
1.05683e-05
1.52014e-05
1.80722e-05
2.05876e-05
2.26427e-05
2.42524e-05
2.58301e-05
2.71603e-05
2.78433e-05
2.63365e-05
2.15722e-05
1.47559e-05
1.34198e-05
1.11358e-05
1.02133e-05
1.22721e-05
1.47338e-05
1.77388e-05
2.13336e-05
2.4948e-05
2.8803e-05
3.32735e-05
3.7639e-05
4.12092e-05
4.33538e-05
4.58627e-05
4.96846e-05
5.24441e-05
4.48112e-05
2.12137e-05
6.85095e-06
7.39752e-07
7.43536e-08
2.1367e-06
5.82967e-06
1.0941e-05
1.48431e-05
1.78219e-05
2.04724e-05
2.37908e-05
2.69651e-05
2.89642e-05
2.89339e-05
2.29913e-05
1.66214e-05
1.24715e-05
1.32832e-05
1.0978e-05
1.01825e-05
1.39985e-05
1.55738e-05
1.68684e-05
1.85124e-05
2.07328e-05
2.41732e-05
2.85811e-05
3.32832e-05
3.88369e-05
4.46781e-05
4.8085e-05
5.02065e-05
5.15653e-05
5.06458e-05
4.0927e-05
1.91441e-05
6.54148e-06
6.66402e-07
9.83435e-08
2.18432e-06
6.20122e-06
1.18812e-05
1.632e-05
2.01653e-05
2.39198e-05
2.75969e-05
3.04188e-05
3.0171e-05
2.33101e-05
1.62247e-05
1.03303e-05
8.97887e-06
1.14528e-05
1.05193e-05
1.08216e-05
1.42213e-05
1.4424e-05
1.49617e-05
1.66557e-05
1.91251e-05
2.24419e-05
2.65165e-05
3.11271e-05
3.61781e-05
4.15522e-05
4.92246e-05
5.44125e-05
5.39442e-05
4.88892e-05
3.51174e-05
1.64201e-05
6.14432e-06
7.00147e-07
1.00208e-07
2.08136e-06
6.01076e-06
1.38506e-05
2.01679e-05
2.41041e-05
2.79437e-05
3.12779e-05
3.10775e-05
2.53385e-05
1.66009e-05
1.01969e-05
8.08172e-06
9.67408e-06
1.07679e-05
1.14417e-05
1.43715e-05
1.49038e-05
1.46908e-05
1.51992e-05
1.62084e-05
1.80225e-05
1.97561e-05
2.1689e-05
2.55273e-05
3.17771e-05
3.8504e-05
4.55956e-05
5.14235e-05
5.50317e-05
5.45887e-05
4.06016e-05
1.80813e-05
6.51048e-06
9.12869e-07
7.38801e-08
1.88441e-06
5.36428e-06
1.24771e-05
1.97304e-05
2.50889e-05
2.87869e-05
3.07228e-05
2.91393e-05
1.99361e-05
1.20122e-05
8.73551e-06
8.10461e-06
9.36998e-06
1.16584e-05
1.38014e-05
1.45952e-05
1.39391e-05
1.37803e-05
1.50309e-05
1.73741e-05
2.0352e-05
2.33494e-05
2.58609e-05
2.68412e-05
2.75939e-05
3.05467e-05
3.58655e-05
4.46886e-05
5.30967e-05
5.46251e-05
4.51469e-05
2.17742e-05
7.11521e-06
1.14842e-06
3.75885e-08
1.54348e-06
3.82068e-06
8.83144e-06
1.69299e-05
2.39975e-05
2.84015e-05
3.05251e-05
2.7045e-05
1.8595e-05
1.21212e-05
9.10397e-06
8.10848e-06
9.59184e-06
1.14909e-05
1.1188e-05
1.06662e-05
9.62017e-06
9.49294e-06
1.20186e-05
1.69755e-05
2.21286e-05
2.55102e-05
2.75451e-05
2.91835e-05
3.15391e-05
3.49396e-05
3.79252e-05
3.95086e-05
4.43894e-05
5.15449e-05
4.69378e-05
2.25707e-05
7.29714e-06
1.18026e-06
1.39278e-08
1.24376e-06
2.6526e-06
5.56839e-06
1.16445e-05
1.98032e-05
2.57642e-05
2.87229e-05
2.69145e-05
2.07766e-05
1.42948e-05
1.0497e-05
8.46499e-06
8.63469e-06
1.14771e-05
1.08419e-05
8.63943e-06
8.38024e-06
9.18865e-06
1.15202e-05
1.55255e-05
2.07891e-05
2.56143e-05
2.91984e-05
3.13884e-05
3.33301e-05
3.62698e-05
4.08545e-05
4.68679e-05
5.00807e-05
5.15744e-05
4.85532e-05
2.51412e-05
7.58662e-06
1.16678e-06
3.80191e-09
1.12154e-06
1.77485e-06
2.92408e-06
5.30111e-06
1.04479e-05
1.85461e-05
2.31635e-05
2.25544e-05
1.87747e-05
1.55913e-05
1.34399e-05
1.166e-05
8.43597e-06
8.87083e-06
1.05626e-05
8.66994e-06
7.92265e-06
8.23345e-06
9.93546e-06
1.3194e-05
1.80907e-05
2.3278e-05
2.73332e-05
3.02624e-05
3.29849e-05
3.64804e-05
4.15622e-05
4.75723e-05
5.22431e-05
5.35985e-05
4.76899e-05
2.38761e-05
7.61936e-06
1.0904e-06
7.6989e-09
2.19108e-06
2.02847e-06
2.41787e-06
3.27806e-06
5.61646e-06
1.04703e-05
1.67648e-05
1.91351e-05
1.80594e-05
1.51234e-05
1.30369e-05
1.1274e-05
7.54309e-06
7.46084e-06
8.65259e-06
7.87916e-06
9.01463e-06
1.07473e-05
1.25862e-05
1.51425e-05
1.82285e-05
2.17158e-05
2.53078e-05
2.86939e-05
3.20109e-05
3.5686e-05
4.02268e-05
4.59642e-05
5.1294e-05
5.38968e-05
4.81345e-05
2.38355e-05
7.47856e-06
1.04953e-06
1.73089e-08
3.99028e-06
3.40631e-06
3.51316e-06
4.93263e-06
7.27194e-06
1.1244e-05
1.51733e-05
1.53445e-05
1.33349e-05
1.07705e-05
8.50976e-06
6.54917e-06
6.76606e-06
8.04422e-06
9.08789e-06
1.13329e-05
1.25486e-05
1.46355e-05
1.76001e-05
2.02644e-05
2.26809e-05
2.4928e-05
2.70477e-05
2.91473e-05
3.14463e-05
3.43577e-05
3.83959e-05
4.36472e-05
5.00186e-05
5.4123e-05
4.82836e-05
2.37628e-05
7.46203e-06
1.04816e-06
2.68414e-08
3.25242e-06
6.45079e-06
8.65961e-06
1.07355e-05
1.26987e-05
1.28821e-05
1.17936e-05
1.02377e-05
8.80268e-06
7.60003e-06
8.10836e-06
9.76176e-06
1.08715e-05
1.33523e-05
1.9764e-05
2.51835e-05
2.28583e-05
2.09811e-05
2.10155e-05
2.2536e-05
2.53834e-05
2.83826e-05
3.03178e-05
3.12936e-05
3.19274e-05
3.32348e-05
3.63118e-05
4.19193e-05
4.90325e-05
5.36432e-05
4.9075e-05
2.43012e-05
7.51026e-06
1.09682e-06
2.79956e-08
3.1988e-06
1.04818e-05
1.80664e-05
1.66204e-05
1.16536e-05
9.58289e-06
9.61253e-06
1.10209e-05
1.28014e-05
1.51014e-05
1.92303e-05
2.15131e-05
2.36461e-05
2.71134e-05
3.04897e-05
3.02373e-05
2.82057e-05
2.84576e-05
2.98532e-05
3.1443e-05
3.32819e-05
3.47713e-05
3.51654e-05
3.4711e-05
3.39311e-05
3.35844e-05
3.45521e-05
3.76806e-05
4.44559e-05
5.21825e-05
5.01785e-05
2.51134e-05
7.52783e-06
1.12742e-06
1.6114e-08
3.37783e-06
1.00239e-05
8.57012e-06
8.63041e-06
1.05823e-05
1.34932e-05
1.69687e-05
2.01977e-05
2.51596e-05
3.34735e-05
3.97544e-05
4.28771e-05
4.42627e-05
4.54183e-05
4.68937e-05
4.47259e-05
4.09954e-05
3.90956e-05
3.83454e-05
3.81078e-05
3.79654e-05
3.77652e-05
3.72863e-05
3.65148e-05
3.58712e-05
3.5852e-05
3.70197e-05
4.0267e-05
4.48542e-05
4.9665e-05
5.01012e-05
2.6115e-05
7.53127e-06
1.11607e-06
9.7717e-09
6.00088e-06
7.83512e-06
9.72736e-06
1.26766e-05
1.79508e-05
2.7122e-05
3.85403e-05
4.94365e-05
5.3531e-05
5.75273e-05
6.03438e-05
5.92893e-05
5.86068e-05
5.85126e-05
5.342e-05
4.70345e-05
4.41987e-05
4.31953e-05
4.2519e-05
4.14702e-05
4.0138e-05
3.89705e-05
3.81649e-05
3.76897e-05
3.75672e-05
3.79555e-05
3.91826e-05
4.18735e-05
4.65647e-05
5.15593e-05
4.83859e-05
2.53522e-05
7.47199e-06
1.05228e-06
1.18262e-08
5.74169e-06
9.38055e-06
1.46127e-05
2.22887e-05
3.23449e-05
4.29469e-05
5.14645e-05
5.55312e-05
5.96202e-05
6.37016e-05
6.77586e-05
7.17708e-05
6.97682e-05
6.55807e-05
5.76136e-05
5.00783e-05
4.58384e-05
4.30689e-05
4.08817e-05
3.91693e-05
3.80834e-05
3.75733e-05
3.75639e-05
3.81129e-05
3.9203e-05
4.07824e-05
4.28755e-05
4.55988e-05
4.89358e-05
5.16587e-05
4.68195e-05
2.30095e-05
7.18087e-06
9.73995e-07
1.22028e-08
5.23752e-06
9.37187e-06
1.5385e-05
2.46354e-05
3.73296e-05
4.79251e-05
5.21576e-05
5.63675e-05
6.05247e-05
6.46186e-05
6.86509e-05
7.26225e-05
7.6541e-05
7.05267e-05
5.36592e-05
4.4524e-05
4.00462e-05
3.76729e-05
3.64197e-05
3.59835e-05
3.60621e-05
3.64746e-05
3.72687e-05
3.85108e-05
4.03333e-05
4.27081e-05
4.54847e-05
4.84213e-05
5.10506e-05
5.19307e-05
4.55723e-05
2.23267e-05
7.0245e-06
9.45491e-07
1.18419e-08
5.28805e-06
9.47726e-06
1.5711e-05
2.61291e-05
4.07503e-05
4.77792e-05
5.20825e-05
5.63138e-05
6.04789e-05
6.45737e-05
6.85969e-05
7.25421e-05
7.63831e-05
6.21183e-05
4.59787e-05
3.85088e-05
3.56783e-05
3.47278e-05
3.45582e-05
3.48821e-05
3.55714e-05
3.6649e-05
3.79267e-05
3.92557e-05
4.10187e-05
4.34839e-05
4.64135e-05
4.94132e-05
5.17177e-05
5.16936e-05
4.38035e-05
2.1181e-05
6.90241e-06
9.45237e-07
1.06639e-08
4.95064e-06
9.07281e-06
1.54698e-05
2.65673e-05
4.17223e-05
4.61497e-05
5.04761e-05
5.4686e-05
5.87797e-05
6.27613e-05
6.66344e-05
7.04002e-05
6.4978e-05
4.59387e-05
3.68016e-05
3.36196e-05
3.30747e-05
3.36533e-05
3.48013e-05
3.66911e-05
3.84458e-05
3.87347e-05
3.85281e-05
3.92559e-05
4.10506e-05
4.37188e-05
4.70327e-05
5.04175e-05
5.28912e-05
5.24237e-05
4.3378e-05
2.02918e-05
6.70867e-06
9.59087e-07
9.06213e-09
4.41362e-06
8.10483e-06
1.42352e-05
2.53027e-05
3.87951e-05
4.33182e-05
4.77081e-05
5.19561e-05
5.60668e-05
6.00469e-05
6.38945e-05
6.43389e-05
4.56593e-05
3.61751e-05
3.29721e-05
3.27905e-05
3.40921e-05
3.65159e-05
3.99516e-05
4.11017e-05
3.99787e-05
3.91586e-05
3.88991e-05
3.93564e-05
4.0673e-05
4.28142e-05
4.60918e-05
5.02663e-05
5.34792e-05
5.30442e-05
4.30639e-05
1.97573e-05
6.60603e-06
9.83657e-07
8.57634e-09
3.98392e-06
7.63743e-06
1.323e-05
2.30149e-05
3.6381e-05
4.09899e-05
4.54729e-05
4.98197e-05
5.40272e-05
5.8133e-05
6.18516e-05
4.60381e-05
3.72441e-05
3.3996e-05
3.39331e-05
3.57691e-05
3.88014e-05
4.21554e-05
4.34214e-05
4.26581e-05
4.15597e-05
4.03793e-05
3.92821e-05
3.86145e-05
3.89889e-05
4.09841e-05
4.41388e-05
4.80184e-05
5.17175e-05
5.19489e-05
4.2482e-05
1.96978e-05
6.60837e-06
1.02956e-06
9.75892e-09
3.71691e-06
7.78615e-06
1.36386e-05
2.28768e-05
3.5024e-05
4.03725e-05
4.48474e-05
4.91899e-05
5.34015e-05
5.36573e-05
4.41584e-05
3.79899e-05
3.55831e-05
3.57669e-05
3.76305e-05
4.04807e-05
4.35038e-05
4.56788e-05
4.60998e-05
4.53515e-05
4.42628e-05
4.26526e-05
4.04311e-05
3.82593e-05
3.72581e-05
3.8321e-05
4.15894e-05
4.61353e-05
5.00689e-05
5.06541e-05
4.20476e-05
1.98829e-05
6.6202e-06
1.06428e-06
1.20696e-08
3.50937e-06
8.14286e-06
1.48686e-05
2.44929e-05
3.56574e-05
4.04519e-05
4.49101e-05
4.9247e-05
4.86443e-05
4.30903e-05
3.92202e-05
3.76686e-05
3.79862e-05
3.96595e-05
4.21425e-05
4.54146e-05
4.85631e-05
4.97101e-05
4.98211e-05
4.95453e-05
4.79356e-05
4.54216e-05
4.22045e-05
3.92741e-05
3.77125e-05
3.76532e-05
3.97974e-05
4.40284e-05
4.84554e-05
4.99754e-05
4.20508e-05
1.99342e-05
6.59777e-06
1.07128e-06
1.54306e-08
3.56665e-06
8.9796e-06
1.75309e-05
2.91063e-05
3.72636e-05
4.17604e-05
4.61716e-05
4.57907e-05
4.33328e-05
4.12771e-05
4.0343e-05
4.05872e-05
4.18431e-05
4.45401e-05
4.84201e-05
5.12428e-05
5.26233e-05
5.4013e-05
5.45195e-05
5.25802e-05
4.87567e-05
4.39796e-05
4.01643e-05
3.86622e-05
3.91065e-05
4.03691e-05
4.16528e-05
4.39896e-05
4.76636e-05
4.95621e-05
4.23838e-05
2.02474e-05
6.60401e-06
1.06521e-06
1.85143e-08
3.77216e-06
1.00245e-05
1.99177e-05
3.14537e-05
3.90751e-05
4.35317e-05
4.65661e-05
4.59184e-05
4.45311e-05
4.35903e-05
4.36009e-05
4.53094e-05
4.84053e-05
5.08252e-05
5.25571e-05
5.50045e-05
5.77817e-05
5.90949e-05
5.72752e-05
5.26586e-05
4.70907e-05
4.24201e-05
3.97594e-05
3.88344e-05
3.91841e-05
4.09672e-05
4.36161e-05
4.63966e-05
4.90433e-05
4.99382e-05
4.23882e-05
2.03853e-05
6.62543e-06
1.03299e-06
2.08192e-08
3.81919e-06
1.03073e-05
2.12627e-05
3.42798e-05
4.08763e-05
4.53664e-05
4.97014e-05
4.9113e-05
4.82176e-05
4.84988e-05
5.02778e-05
5.17176e-05
5.25201e-05
5.44326e-05
5.76933e-05
6.12822e-05
6.31967e-05
6.18605e-05
5.73663e-05
5.11108e-05
4.54746e-05
4.18146e-05
3.98231e-05
3.89871e-05
3.9134e-05
4.06947e-05
4.36234e-05
4.70708e-05
4.98782e-05
4.9926e-05
4.1527e-05
2.01683e-05
6.64338e-06
9.90439e-07
2.21596e-08
3.80342e-06
1.01954e-05
2.16254e-05
3.64533e-05
4.28404e-05
4.74361e-05
5.19751e-05
5.64497e-05
5.63928e-05
5.64647e-05
5.66186e-05
5.72138e-05
5.89071e-05
6.1392e-05
6.4312e-05
6.65782e-05
6.64517e-05
6.28798e-05
5.65732e-05
4.96682e-05
4.42856e-05
4.10117e-05
3.95399e-05
3.91953e-05
3.96826e-05
4.1158e-05
4.37519e-05
4.73218e-05
5.03545e-05
5.01806e-05
4.18012e-05
2.00401e-05
6.64531e-06
9.59797e-07
2.26491e-08
3.70056e-06
9.70242e-06
2.07323e-05
3.66201e-05
4.45465e-05
4.92478e-05
5.38996e-05
5.85063e-05
6.3048e-05
6.70917e-05
6.68644e-05
6.73607e-05
6.83824e-05
6.97587e-05
7.10944e-05
7.14917e-05
6.94208e-05
6.39444e-05
5.62525e-05
4.89212e-05
4.38056e-05
4.10302e-05
3.96984e-05
3.934e-05
3.96796e-05
4.07276e-05
4.28885e-05
4.59697e-05
4.95268e-05
5.04106e-05
4.21146e-05
2.00284e-05
6.62206e-06
9.50645e-07
2.27687e-08
3.56065e-06
9.04367e-06
1.90801e-05
3.50382e-05
4.61306e-05
5.09153e-05
5.56399e-05
6.03238e-05
6.4968e-05
6.95578e-05
7.40667e-05
7.84672e-05
8.14223e-05
8.11263e-05
8.03679e-05
7.7967e-05
7.29927e-05
6.53105e-05
5.6445e-05
4.88796e-05
4.41216e-05
4.16141e-05
4.03045e-05
3.91671e-05
3.81418e-05
3.81057e-05
4.0079e-05
4.40856e-05
4.88515e-05
5.03274e-05
4.22287e-05
2.02568e-05
6.74458e-06
9.55376e-07
2.27467e-08
3.44787e-06
8.46342e-06
1.71241e-05
3.18414e-05
4.7468e-05
5.23459e-05
5.71502e-05
6.18959e-05
6.65903e-05
7.12347e-05
7.58228e-05
8.03387e-05
8.4758e-05
8.9052e-05
9.29265e-05
8.76721e-05
7.92922e-05
6.88872e-05
5.8642e-05
5.07966e-05
4.62225e-05
4.37191e-05
4.13135e-05
3.84047e-05
3.55672e-05
3.43872e-05
3.62101e-05
4.11688e-05
4.74214e-05
5.02884e-05
4.33175e-05
2.08564e-05
6.88654e-06
9.80808e-07
2.31843e-08
3.40542e-06
8.32669e-06
1.62297e-05
2.92238e-05
4.71996e-05
5.35052e-05
5.84579e-05
6.33445e-05
6.81596e-05
7.29037e-05
7.75764e-05
8.2173e-05
8.6686e-05
9.11086e-05
9.54413e-05
9.91829e-05
8.85664e-05
7.5516e-05
6.36931e-05
5.53183e-05
5.06226e-05
4.72858e-05
4.32918e-05
3.83084e-05
3.35339e-05
3.07487e-05
3.13358e-05
3.58946e-05
4.3263e-05
4.88308e-05
4.46456e-05
2.16285e-05
6.9669e-06
1.03253e-06
2.51577e-08
3.44045e-06
8.89701e-06
1.75133e-05
3.03185e-05
4.7306e-05
5.46869e-05
5.98351e-05
6.48945e-05
6.98764e-05
7.47872e-05
7.96211e-05
8.43517e-05
8.89509e-05
9.33819e-05
9.75961e-05
0.000101534
9.60937e-05
8.24494e-05
6.97003e-05
6.13092e-05
5.6344e-05
5.19379e-05
4.64484e-05
3.96971e-05
3.29393e-05
2.81174e-05
2.67798e-05
2.98835e-05
3.78593e-05
4.61821e-05
4.51358e-05
2.24147e-05
7.06876e-06
1.10199e-06
2.89877e-08
3.53997e-06
9.9272e-06
2.09432e-05
3.64017e-05
5.02678e-05
5.59714e-05
6.15233e-05
6.68917e-05
7.20687e-05
7.70552e-05
8.18531e-05
8.64612e-05
9.08672e-05
9.50536e-05
9.89911e-05
0.000102552
9.85285e-05
8.55317e-05
7.31117e-05
6.50928e-05
6.00931e-05
5.48028e-05
4.80842e-05
4.0168e-05
3.25266e-05
2.68038e-05
2.45293e-05
2.6276e-05
3.2543e-05
4.30429e-05
4.5922e-05
2.32076e-05
7.15991e-06
1.13726e-06
3.44268e-08
3.78257e-06
1.16012e-05
2.73396e-05
4.47e-05
5.07686e-05
5.66972e-05
6.24349e-05
6.79387e-05
7.31995e-05
7.82222e-05
8.30132e-05
8.75791e-05
9.18487e-05
9.58163e-05
9.94441e-05
0.000102754
0.000100095
8.78402e-05
7.5431e-05
6.68869e-05
6.07935e-05
5.3915e-05
4.55978e-05
3.65837e-05
2.83491e-05
2.39968e-05
2.36938e-05
2.642e-05
3.26638e-05
4.1774e-05
4.61596e-05
2.41556e-05
7.21638e-06
1.13136e-06
3.91384e-08
4.25112e-06
1.35192e-05
3.28893e-05
4.61008e-05
5.19043e-05
5.76742e-05
6.34596e-05
6.8948e-05
7.41406e-05
7.90591e-05
8.36703e-05
8.7992e-05
9.20844e-05
9.58799e-05
9.93069e-05
0.000102267
0.00010448
9.23054e-05
7.87874e-05
6.84629e-05
6.01165e-05
5.06033e-05
4.00834e-05
3.0326e-05
2.47655e-05
2.29947e-05
2.34304e-05
2.64463e-05
3.28878e-05
4.19529e-05
4.54814e-05
2.38687e-05
7.13591e-06
1.11041e-06
4.08583e-08
4.63968e-06
1.52942e-05
3.90307e-05
4.75253e-05
5.33406e-05
5.8988e-05
6.45237e-05
6.98094e-05
7.47364e-05
7.93549e-05
8.37466e-05
8.78714e-05
9.1678e-05
9.51243e-05
9.81505e-05
0.000100678
0.000102611
9.63627e-05
8.16876e-05
6.88538e-05
5.72298e-05
4.42509e-05
3.25394e-05
2.5854e-05
2.29234e-05
2.21186e-05
2.34469e-05
2.70853e-05
3.37499e-05
4.26669e-05
4.59395e-05
2.38382e-05
7.13374e-06
1.11318e-06
4.08138e-08
4.9403e-06
1.66955e-05
4.2142e-05
4.84183e-05
5.43993e-05
6.0084e-05
6.53122e-05
7.02409e-05
7.48796e-05
7.92313e-05
8.32782e-05
8.70172e-05
9.04246e-05
9.34563e-05
9.60494e-05
9.81224e-05
9.95733e-05
9.72495e-05
8.13233e-05
6.53183e-05
4.90601e-05
3.58075e-05
2.77414e-05
2.33286e-05
2.15366e-05
2.16962e-05
2.35516e-05
2.75668e-05
3.42165e-05
4.24671e-05
4.50615e-05
2.34047e-05
7.05356e-06