/*--------------------------------*- C++ -*----------------------------------*\
| =========                 |                                                 |
| \\      /  F ield         | OpenFOAM: The Open Source CFD Toolbox           |
|  \\    /   O peration     | Version:  v1906                                 |
|   \\  /    A nd           | Web:      www.OpenFOAM.com                      |
|    \\/     M anipulation  |                                                 |
\*---------------------------------------------------------------------------*/
FoamFile
{
    version     2.0;
    format      ascii;
    class       volScalarField;
    location    "950";
    object      k;
}
// * * * * * * * * * * * * * * * * * * * * * * * * * * * * * * * * * * * * * //

dimensions      [0 2 -2 0 0 0 0];


internalField   nonuniform List<scalar> 
78750
(
1.42971e-05
2.16408e-05
2.46578e-05
2.59893e-05
2.70225e-05
2.81105e-05
2.91634e-05
3.00733e-05
3.08275e-05
3.14504e-05
3.19678e-05
3.24039e-05
3.27834e-05
3.31326e-05
3.34699e-05
3.38118e-05
3.41821e-05
3.4589e-05
3.50104e-05
3.54852e-05
3.5987e-05
3.65292e-05
3.70802e-05
3.76173e-05
3.81233e-05
3.86033e-05
3.90773e-05
3.95482e-05
4.00826e-05
4.02085e-05
3.89999e-05
3.44144e-05
2.92097e-05
1.98235e-05
7.52043e-06
4.63892e-05
3.12706e-05
2.69978e-05
2.53052e-05
2.40055e-05
2.28013e-05
2.17052e-05
2.06578e-05
1.96602e-05
1.87565e-05
1.79584e-05
1.72749e-05
1.67058e-05
1.62336e-05
1.58462e-05
1.55555e-05
1.53593e-05
1.53297e-05
1.54953e-05
1.60606e-05
1.72694e-05
1.92631e-05
2.20282e-05
2.5356e-05
2.88947e-05
3.25736e-05
3.67163e-05
4.19576e-05
4.95865e-05
5.86597e-05
6.89435e-05
7.61412e-05
7.46168e-05
6.03969e-05
3.28769e-05
5.63339e-05
4.02051e-05
3.13945e-05
2.57117e-05
2.21297e-05
1.9697e-05
1.82053e-05
1.73273e-05
1.68377e-05
1.65416e-05
1.633e-05
1.62259e-05
1.6168e-05
1.61134e-05
1.60354e-05
1.59085e-05
1.57074e-05
1.54268e-05
1.50877e-05
1.4718e-05
1.43883e-05
1.41822e-05
1.42551e-05
1.49095e-05
1.63001e-05
1.86621e-05
2.21002e-05
2.69649e-05
3.40746e-05
4.74964e-05
6.81376e-05
8.66147e-05
9.09434e-05
7.71848e-05
4.38189e-05
6.12024e-05
4.66075e-05
3.65787e-05
2.92625e-05
2.39094e-05
2.05149e-05
1.85454e-05
1.7662e-05
1.75592e-05
1.79339e-05
1.8518e-05
1.907e-05
1.95026e-05
1.97318e-05
1.97206e-05
1.94947e-05
1.90125e-05
1.82758e-05
1.73013e-05
1.61503e-05
1.50737e-05
1.44094e-05
1.45973e-05
1.58157e-05
1.82613e-05
2.2532e-05
3.00672e-05
4.49696e-05
6.9409e-05
0.000100701
0.000127113
0.000138447
0.000130864
0.000104094
5.32175e-05
6.33103e-05
4.97472e-05
3.94359e-05
3.14882e-05
2.56334e-05
2.20808e-05
2.09942e-05
2.17055e-05
2.38663e-05
2.65843e-05
2.91051e-05
3.10956e-05
3.23277e-05
3.26742e-05
3.22083e-05
3.10022e-05
2.91926e-05
2.68181e-05
2.38675e-05
2.11668e-05
2.03932e-05
2.20705e-05
2.73893e-05
3.88555e-05
5.64939e-05
7.87014e-05
0.000105533
0.000135751
0.000162685
0.000182771
0.000188822
0.000181468
0.000161321
0.000125962
6.33288e-05
6.58918e-05
5.33869e-05
4.31071e-05
3.49447e-05
2.90646e-05
2.61382e-05
2.63425e-05
2.96072e-05
3.50603e-05
4.11051e-05
4.61047e-05
4.98097e-05
5.21982e-05
5.31969e-05
5.35342e-05
5.41428e-05
5.7253e-05
6.40056e-05
7.45705e-05
8.81612e-05
0.000103701
0.0001211
0.000140266
0.000161157
0.000184577
0.000208189
0.000226306
0.000240564
0.000245022
0.000243153
0.000231442
0.000211161
0.000182842
0.000138637
6.57983e-05
6.57801e-05
5.55645e-05
4.6292e-05
3.86144e-05
3.33129e-05
3.21173e-05
3.57735e-05
4.40043e-05
5.50935e-05
6.60982e-05
7.56915e-05
8.45747e-05
9.35029e-05
0.000103097
0.000113675
0.000125434
0.000138539
0.000152836
0.000167856
0.000183353
0.000200048
0.000219369
0.000240271
0.000259414
0.000275218
0.000288327
0.000293746
0.000294097
0.000288954
0.000277188
0.000259147
0.00023439
0.000200335
0.000147868
6.82423e-05
6.57925e-05
5.75417e-05
4.96521e-05
4.30469e-05
3.92093e-05
4.04656e-05
4.82098e-05
6.14673e-05
7.70539e-05
9.1714e-05
0.000105618
0.000120723
0.000136808
0.000152137
0.000166702
0.00018084
0.000194659
0.000208403
0.000222956
0.000239292
0.000257932
0.000276641
0.000293819
0.000309567
0.000320313
0.000327317
0.000329848
0.000329105
0.000322393
0.000309147
0.000288758
0.000260343
0.000221257
0.000162064
7.50778e-05
6.5625e-05
5.92701e-05
5.29261e-05
4.77521e-05
4.56609e-05
4.96085e-05
6.06137e-05
7.65008e-05
9.26306e-05
0.000107709
0.000123817
0.000141668
0.000159249
0.000175126
0.00018917
0.000201597
0.000213766
0.0002265
0.000240666
0.000257637
0.000276054
0.000294802
0.000314233
0.000331144
0.000345054
0.00035576
0.000362018
0.000362725
0.000357913
0.000344432
0.000322118
0.000292867
0.000252397
0.000188099
9.08504e-05
6.57279e-05
6.11647e-05
5.62993e-05
5.26684e-05
5.24639e-05
5.83344e-05
7.02469e-05
8.52881e-05
9.92698e-05
0.000112782
0.000127606
0.000143944
0.000160472
0.000175159
0.000187859
0.000199485
0.000210918
0.000222954
0.000237335
0.000254455
0.000274239
0.000297699
0.000322214
0.000345085
0.000365195
0.000380767
0.000390016
0.00039155
0.000385818
0.000370978
0.0003481
0.000317658
0.000274573
0.000206292
0.000105556
6.49078e-05
6.32684e-05
6.01337e-05
5.79447e-05
5.91051e-05
6.55533e-05
7.65479e-05
8.95152e-05
0.00010147
0.00011347
0.000126825
0.000141303
0.000156198
0.000169357
0.000180408
0.000190656
0.000200738
0.000212467
0.000228256
0.000248167
0.000272472
0.000302082
0.000333341
0.000362753
0.000388511
0.00040859
0.00042142
0.000424629
0.000417567
0.000399433
0.00037421
0.000341017
0.000294259
0.000221444
0.00011502
6.15962e-05
6.41648e-05
6.35085e-05
6.28346e-05
6.4508e-05
7.00689e-05
7.88311e-05
8.93046e-05
9.95786e-05
0.00010984
0.000121099
0.000133355
0.000146243
0.000158708
0.000170384
0.000181962
0.000194048
0.000208967
0.000229234
0.00025438
0.000284663
0.000319772
0.000355465
0.000388393
0.000417194
0.000438886
0.000449928
0.00045072
0.00044048
0.000420863
0.000396009
0.000363784
0.00031759
0.000240665
0.000120932
5.67787e-05
6.38468e-05
6.57868e-05
6.64932e-05
6.81929e-05
7.21275e-05
7.82311e-05
8.60952e-05
9.48507e-05
0.000104206
0.000114796
0.000126788
0.000139862
0.000153239
0.000166576
0.000180453
0.000195563
0.000214826
0.000240661
0.000270757
0.000304041
0.000341023
0.000378241
0.000412443
0.000440377
0.000459862
0.000467664
0.000467147
0.000456308
0.00044018
0.000417739
0.000386994
0.000340692
0.000258971
0.000128221
5.17697e-05
6.23637e-05
6.70043e-05
6.89342e-05
7.06263e-05
7.31742e-05
7.71672e-05
8.31695e-05
9.10442e-05
0.00010012
0.000110755
0.00012325
0.000137246
0.000151984
0.00016709
0.000183057
0.000201275
0.000223833
0.000251764
0.000283313
0.000318292
0.000357801
0.000398076
0.000433858
0.000462633
0.000482133
0.000489643
0.000488203
0.000479095
0.000465297
0.000444095
0.000413764
0.000366474
0.000279773
0.000138182
4.66246e-05
6.00182e-05
6.69286e-05
7.01827e-05
7.2099e-05
7.3804e-05
7.63913e-05
8.1069e-05
8.82514e-05
9.71822e-05
0.000108007
0.000121087
0.000135863
0.000151638
0.000168046
0.000185459
0.00020541
0.000230159
0.000260105
0.000293915
0.000331795
0.000373709
0.000415142
0.000451173
0.000479229
0.000497372
0.000503912
0.000501905
0.000495914
0.000485361
0.00046711
0.000439491
0.000394226
0.000304611
0.000148651
4.14407e-05
5.70311e-05
6.60402e-05
7.04501e-05
7.28215e-05
7.43453e-05
7.6352e-05
8.03113e-05
8.70995e-05
9.60467e-05
0.000107165
0.000120827
0.000136229
0.000152903
0.000170902
0.000190471
0.000213396
0.000241632
0.000274906
0.000311924
0.000351549
0.000393278
0.000433071
0.000466629
0.000491752
0.000507627
0.00051343
0.000513947
0.000513247
0.000507474
0.000492721
0.000467349
0.000422367
0.00032796
0.000158569
3.71185e-05
5.3953e-05
6.4479e-05
7.00149e-05
7.29106e-05
7.45131e-05
7.63568e-05
8.03695e-05
8.71887e-05
9.63159e-05
0.000108023
0.000122767
0.000139842
0.000158327
0.00017833
0.00020069
0.000226934
0.000257867
0.000293344
0.000331683
0.00037078
0.000410094
0.000447275
0.000478344
0.000500841
0.000514602
0.000522653
0.000528163
0.000533001
0.000532962
0.000521808
0.000497861
0.000452213
0.000354084
0.000174808
3.35742e-05
5.11192e-05
6.26753e-05
6.89959e-05
7.25336e-05
7.45238e-05
7.67809e-05
8.13588e-05
8.90309e-05
9.9347e-05
0.000112425
0.000128372
0.000146431
0.000166099
0.0001878
0.000212421
0.000240848
0.000273695
0.000310642
0.000349378
0.000387495
0.000423326
0.000455832
0.000482664
0.000501711
0.00051481
0.000524884
0.00053666
0.000550489
0.000557989
0.00055177
0.000529637
0.000484941
0.000386172
0.000199163
3.06037e-05
4.85059e-05
6.07352e-05
6.76474e-05
7.17312e-05
7.46131e-05
7.81119e-05
8.41698e-05
9.31177e-05
0.000104616
0.000118868
0.000135792
0.000154919
0.000176204
0.000200159
0.000227545
0.000259123
0.000295389
0.000333863
0.00037208
0.00040737
0.000438177
0.00046446
0.000485391
0.000501451
0.000515003
0.000530639
0.000550333
0.000573047
0.000586319
0.000581614
0.00055846
0.000511625
0.000410344
0.000220195
2.85393e-05
4.62409e-05
5.8886e-05
6.64437e-05
7.15549e-05
7.55779e-05
8.08856e-05
8.89391e-05
9.97868e-05
0.000113218
0.000129413
0.000148385
0.00017009
0.000194729
0.000222786
0.000254776
0.000290826
0.000328917
0.000366191
0.000400244
0.000428822
0.000451575
0.000469895
0.0004856
0.000502012
0.000523043
0.000552874
0.000584874
0.000609298
0.000618983
0.000611146
0.000584309
0.000531866
0.000421325
0.000221931
2.78353e-05
4.49699e-05
5.7913e-05
6.62395e-05
7.20925e-05
7.80354e-05
8.55047e-05
9.5736e-05
0.000108909
0.000125176
0.000144906
0.00016819
0.000194889
0.000224921
0.000258163
0.000294169
0.00033124
0.000366192
0.000396827
0.000421948
0.000441365
0.000457558
0.000475427
0.000500754
0.000536162
0.000574036
0.000608306
0.000634764
0.000650664
0.000652647
0.000639797
0.000609036
0.000550896
0.000430213
0.000214926
2.85923e-05
4.48568e-05
5.78555e-05
6.64936e-05
7.3487e-05
8.14329e-05
9.19407e-05
0.00010588
0.000123522
0.000145198
0.000170985
0.000200362
0.000232546
0.000266842
0.000302478
0.000337578
0.000369583
0.000396853
0.000419074
0.000437336
0.000454339
0.000476123
0.000509397
0.000546352
0.000581047
0.000613106
0.000642233
0.000666198
0.0006802
0.000681341
0.000667405
0.000635245
0.000571974
0.000439487
0.000207919
3.02157e-05
4.55769e-05
5.86268e-05
6.86806e-05
7.79356e-05
8.86709e-05
0.000102723
0.000120941
0.000143623
0.000170681
0.000201302
0.00023422
0.000268305
0.000302527
0.000334919
0.000363554
0.000387191
0.000405993
0.000421606
0.000436725
0.000456656
0.000487407
0.000524256
0.000559714
0.000593476
0.000627247
0.000661149
0.000689464
0.000706988
0.000711085
0.000699955
0.000669038
0.000603726
0.000461515
0.000211099
3.06097e-05
4.59467e-05
5.95462e-05
7.1032e-05
8.24547e-05
9.62454e-05
0.000113939
0.000135989
0.000162233
0.00019195
0.000223928
0.000256963
0.0002896
0.000320322
0.000347644
0.000370537
0.000388951
0.000404284
0.000418433
0.000434938
0.000459786
0.000496502
0.000536857
0.00057324
0.000604887
0.000635311
0.000666455
0.000697953
0.000725718
0.000736684
0.000731798
0.000705572
0.000642827
0.000496198
0.000228299
3.01836e-05
4.65395e-05
6.13519e-05
7.45454e-05
8.80954e-05
0.000104092
0.000123818
0.000147689
0.000175467
0.000206298
0.00023866
0.000270902
0.000301656
0.000329685
0.000354079
0.000374481
0.000391281
0.00040627
0.000423232
0.000447127
0.00048239
0.000527189
0.000569226
0.000600482
0.000621508
0.000639755
0.000664285
0.000697773
0.000731597
0.000758638
0.000762453
0.000743311
0.000684963
0.00053656
0.000248856
2.75873e-05
4.62237e-05
6.28377e-05
7.82022e-05
9.35724e-05
0.000110975
0.00013181
0.000156358
0.000184235
0.000214365
0.000245393
0.000275935
0.00030483
0.000331195
0.000354445
0.000374431
0.000391644
0.000408285
0.00042809
0.000455762
0.000492624
0.00053637
0.000580379
0.000613331
0.000631012
0.000636068
0.000643744
0.000668166
0.000715483
0.000764292
0.000788166
0.000783341
0.00073582
0.000595474
0.000295523
2.22263e-05
4.32098e-05
6.16817e-05
7.77062e-05
9.35269e-05
0.000111094
0.000131478
0.000155685
0.000183146
0.000212926
0.000243552
0.00027363
0.000302026
0.000327878
0.000350648
0.000370331
0.000387877
0.000404135
0.000421345
0.000443468
0.000473472
0.000509866
0.000549636
0.000590002
0.000618384
0.000624282
0.000611392
0.000607824
0.000646512
0.000727087
0.00079385
0.000813928
0.000792578
0.000698695
0.000471962
1.47658e-05
3.7608e-05
5.81943e-05
7.62755e-05
9.31771e-05
0.00011077
0.000130464
0.000152618
0.000177565
0.000204142
0.000231329
0.000258245
0.000284098
0.000308278
0.000330411
0.000350421
0.000368624
0.000385662
0.000402606
0.000420714
0.000441007
0.000463639
0.000485235
0.000502242
0.000515432
0.000529421
0.000554285
0.000580073
0.000619403
0.000700893
0.000784194
0.000816362
0.000798906
0.000719351
0.000587405
9.83532e-06
3.24777e-05
5.34124e-05
7.2455e-05
9.0133e-05
0.000107466
0.000125752
0.000145966
0.000168678
0.000193538
0.000219197
0.000244494
0.000268774
0.000291523
0.000312369
0.00033122
0.000348038
0.000362843
0.000375381
0.000385477
0.000393433
0.000401491
0.000412992
0.000430027
0.000459873
0.000504381
0.000559478
0.000630358
0.000711717
0.000786075
0.000837727
0.000837682
0.000801758
0.000704887
0.000568081
9.68854e-06
3.2878e-05
5.40032e-05
7.32866e-05
9.13615e-05
0.000109154
0.000127684
0.000147526
0.000168595
0.000189738
0.000210711
0.000230888
0.000249754
0.000266888
0.000282968
0.000296975
0.000309622
0.000321831
0.00033564
0.000355872
0.000390584
0.000449132
0.000524638
0.000605027
0.000685744
0.000760154
0.000824439
0.00086796
0.00088958
0.000889177
0.000881054
0.000845685
0.000775041
0.000626365
0.000380085
1.25632e-05
3.66605e-05
5.9587e-05
8.03907e-05
9.91486e-05
0.000116626
0.000134073
0.000152335
0.000171523
0.000191664
0.000211957
0.000232301
0.000251328
0.000268927
0.000285156
0.000303061
0.000329999
0.000368782
0.000419404
0.000476783
0.000535539
0.000589333
0.000634416
0.000683015
0.000737075
0.000795572
0.000848618
0.000883735
0.000903482
0.000904496
0.000885329
0.000842414
0.000760954
0.000587743
0.000301223
1.75361e-05
4.1958e-05
6.54344e-05
8.69471e-05
0.000106523
0.000125072
0.000143632
0.000162771
0.000182469
0.000202468
0.000222511
0.00024252
0.000263821
0.000287527
0.000314712
0.000345625
0.000377545
0.000412342
0.000448428
0.000480926
0.00050997
0.000544372
0.000595314
0.000658231
0.000728811
0.000797449
0.000857214
0.000904127
0.000927761
0.000928389
0.00090452
0.000854516
0.000763619
0.000586174
0.000302252
1.94082e-05
4.58342e-05
7.05442e-05
9.27075e-05
0.000112415
0.000130688
0.000148619
0.000166911
0.000185898
0.000205736
0.00022648
0.000248135
0.000270721
0.000294112
0.000318258
0.000343127
0.000367936
0.000390158
0.000407931
0.0004253
0.000455181
0.000505568
0.000570499
0.000644495
0.000721918
0.000795262
0.000858227
0.000905811
0.000932913
0.000937319
0.000919071
0.000874099
0.000784774
0.000616515
0.000376331
1.93945e-05
4.83635e-05
7.45041e-05
9.73166e-05
0.000117536
0.000136683
0.000155953
0.000175674
0.00019561
0.000215498
0.000235364
0.000255119
0.000274822
0.000295168
0.000315785
0.00033454
0.000353865
0.000377793
0.000415492
0.000463131
0.000520047
0.000583962
0.000653558
0.000724887
0.000792727
0.000852558
0.000901159
0.000935864
0.000952556
0.000949743
0.00092478
0.000876255
0.000787706
0.000617597
0.000376522
2.24943e-05
5.22807e-05
8.00238e-05
0.000103984
0.000124759
0.000143884
0.000162248
0.000180472
0.000199441
0.000220185
0.000240898
0.000262645
0.000288061
0.000315443
0.000344677
0.000377177
0.000411699
0.000450866
0.000488357
0.00053268
0.000586868
0.000651926
0.000722101
0.000792826
0.000855971
0.000907215
0.000943942
0.000963933
0.000968162
0.000956643
0.000924671
0.000868537
0.000766722
0.000577053
0.000309262
3.29263e-05
6.38359e-05
9.37504e-05
0.000119031
0.000141101
0.000162606
0.000185396
0.000210263
0.000237044
0.000264845
0.000293712
0.000321652
0.000344444
0.000364324
0.000381859
0.000397932
0.000414322
0.000441445
0.000478332
0.000526782
0.000586958
0.000655592
0.000729003
0.000800181
0.000862954
0.00091331
0.000948983
0.000969759
0.000973309
0.000958701
0.000925889
0.000866843
0.000760007
0.00056601
0.000278119
4.35606e-05
7.29304e-05
0.000103084
0.000131198
0.000158022
0.000185322
0.000213464
0.000241369
0.000267217
0.000289127
0.00030606
0.000318139
0.000321646
0.000310942
0.000302004
0.00030073
0.000310872
0.000332601
0.000363617
0.000408512
0.000469762
0.000546885
0.000638465
0.000732587
0.000817552
0.000888378
0.000940079
0.000970391
0.0009793
0.000974714
0.000948687
0.000888375
0.000774061
0.000577803
0.000292357
4.43912e-05
7.92249e-05
0.000113936
0.000145275
0.000173819
0.000201189
0.000227271
0.000250769
0.000270768
0.000287663
0.000295328
0.000291338
0.00027079
0.000260917
0.000261984
0.000277342
0.000296571
0.000311587
0.000324389
0.000346911
0.000387896
0.000456551
0.000535794
0.000625401
0.000721358
0.000812604
0.000886872
0.00094051
0.000970252
0.000975299
0.000958146
0.000917844
0.000838078
0.00066659
0.000382973
3.27252e-05
7.55965e-05
0.00011273
0.000144436
0.00017303
0.000199953
0.00022477
0.000246245
0.000262874
0.000272091
0.000271986
0.000261836
0.000247929
0.000243949
0.000254425
0.000274378
0.000292449
0.000299372
0.000305166
0.000327456
0.000375715
0.000445829
0.00052979
0.000618689
0.000708395
0.000791288
0.000862401
0.000917058
0.000952599
0.000965838
0.00095481
0.000917511
0.000843656
0.000701045
0.000483684
1.66465e-05
6.15565e-05
0.000103968
0.00013938
0.0001689
0.000194731
0.00021782
0.000237375
0.000252298
0.000261193
0.000261198
0.000253024
0.000239972
0.000233576
0.000235605
0.000243678
0.000242837
0.000238079
0.000247632
0.000294032
0.000363514
0.000445839
0.000534415
0.000624536
0.000711886
0.00079312
0.000862822
0.000915927
0.000949272
0.000958139
0.000947425
0.000913969
0.000844646
0.00070389
0.000497264
6.16722e-06
4.0968e-05
8.06558e-05
0.000118854
0.00015161
0.000177603
0.000198454
0.000215354
0.000228455
0.000237384
0.000240453
0.000238759
0.000231784
0.00022513
0.000222492
0.000220632
0.000216662
0.000219472
0.00024136
0.000288735
0.00036439
0.000462048
0.000561753
0.000656708
0.000743626
0.000819936
0.000882175
0.000926723
0.000951585
0.000957411
0.00094228
0.000904681
0.000834291
0.000695052
0.000491531
1.68338e-06
2.29981e-05
4.98524e-05
8.13245e-05
0.000115081
0.000147141
0.000173752
0.000194527
0.00021072
0.000222898
0.000230708
0.000233035
0.000230756
0.000225881
0.00022072
0.000215863
0.000212389
0.000214975
0.000234746
0.00028281
0.000362428
0.000462967
0.000564359
0.00065976
0.000746499
0.000822645
0.000885231
0.000930194
0.000954419
0.000957529
0.000941191
0.000903103
0.000830222
0.000682294
0.000458734
3.40906e-06
1.61371e-05
2.9943e-05
4.84503e-05
7.19124e-05
9.78766e-05
0.000122655
0.000143703
0.000161378
0.000176066
0.000187853
0.000196346
0.00020377
0.000204284
0.000201026
0.00019792
0.000200045
0.000216844
0.000258332
0.000327205
0.000414732
0.000508324
0.00060073
0.000687914
0.000767394
0.000836916
0.000893528
0.000934024
0.000955818
0.000958125
0.000940402
0.000902281
0.000828583
0.000681178
0.000440964
7.66608e-06
3.27723e-05
5.12577e-05
6.76907e-05
8.67511e-05
0.000108021
0.000128324
0.000145279
0.00015954
0.000170116
0.00017678
0.000179418
0.000179213
0.000178141
0.00018047
0.000193713
0.00022131
0.000267414
0.000330988
0.000404203
0.000479858
0.000555054
0.000629801
0.00070352
0.000774301
0.000839179
0.000894182
0.000934545
0.000956321
0.000958338
0.000940478
0.000901352
0.000828903
0.000681505
0.000440366
1.18912e-05
5.62815e-05
8.51022e-05
0.000102115
0.000114308
0.000124927
0.000134408
0.000142588
0.00014727
0.000150337
0.000152646
0.000155932
0.000162713
0.000176362
0.000200339
0.000234108
0.000273725
0.000320298
0.000375889
0.000439276
0.000508353
0.000579808
0.000651286
0.000720564
0.000785979
0.000845775
0.000897129
0.000935711
0.000956789
0.000958077
0.00094005
0.000901638
0.000830646
0.000689542
0.000460907
1.24018e-05
5.37888e-05
8.08127e-05
9.59128e-05
0.0001056
0.000113164
0.000119629
0.000125814
0.0001343
0.000145657
0.000160692
0.000179923
0.000203885
0.000233677
0.000268911
0.00030803
0.000351185
0.000400812
0.000456814
0.000516643
0.000577846
0.00063872
0.000698921
0.000757001
0.00081195
0.000862343
0.000905911
0.000939291
0.000958054
0.000958577
0.000940547
0.000901724
0.000830862
0.000690627
0.000473856
7.1362e-06
3.35909e-05
5.38052e-05
7.09137e-05
8.85408e-05
0.000107577
0.0001285
0.000151547
0.000176798
0.000204047
0.000231981
0.00026037
0.000290473
0.000323327
0.000359305
0.000398308
0.000440992
0.000488452
0.00053984
0.000593169
0.000647014
0.000700819
0.000754397
0.000806175
0.000854588
0.000897516
0.000932294
0.00095593
0.000965625
0.000960369
0.000936419
0.000893983
0.000820678
0.000678937
0.00046884
4.32696e-06
3.42869e-05
6.23259e-05
9.21964e-05
0.000123864
0.000155703
0.0001856
0.000212846
0.000238266
0.000263826
0.000290805
0.000319503
0.000350724
0.000385013
0.000422094
0.000462669
0.000508121
0.000557232
0.000607219
0.000656654
0.000705326
0.000753696
0.000801509
0.00084709
0.000888665
0.000924422
0.000952298
0.000969659
0.000973603
0.000963413
0.000935404
0.000888674
0.000809169
0.000658969
0.000441072
5.23689e-06
5.23442e-05
9.42916e-05
0.000133005
0.000167354
0.000197467
0.00022467
0.000250906
0.000277843
0.000306106
0.000335518
0.000365965
0.000397303
0.000430293
0.000466085
0.000505589
0.000549213
0.000595255
0.000641924
0.000688885
0.000736326
0.000784342
0.000831395
0.000875635
0.000914926
0.000947014
0.000970026
0.000981523
0.000980131
0.000964859
0.000933902
0.000883498
0.000798573
0.000640068
0.000407399
5.4039e-06
5.57612e-05
9.95359e-05
0.00013864
0.000172681
0.000202033
0.000229043
0.000256211
0.000284447
0.000313546
0.000343415
0.000374019
0.000405305
0.000437264
0.000471213
0.000510231
0.000554708
0.00060093
0.000647473
0.000694726
0.000743342
0.000793026
0.000841979
0.000888114
0.000928828
0.000961718
0.000983239
0.000991832
0.000987097
0.000967909
0.000934115
0.000881417
0.000793673
0.000633809
0.000395381
5.2442e-06
5.5633e-05
9.93427e-05
0.000138485
0.000172478
0.000201367
0.000228304
0.000255863
0.000284224
0.000313363
0.000343216
0.000373721
0.000404759
0.000436077
0.000469949
0.00050975
0.000554338
0.000600207
0.000646264
0.000693636
0.000742986
0.000793072
0.000842507
0.000889149
0.000930291
0.000963678
0.000985832
0.000993777
0.000988918
0.000969437
0.000934651
0.000881615
0.00079161
0.000631435
0.000395253
4.7226e-06
5.18664e-05
9.34496e-05
0.000131218
0.000164053
0.000192118
0.000218731
0.000246008
0.000273781
0.000301973
0.000330528
0.000359384
0.000388459
0.000418752
0.000453928
0.000495843
0.000540358
0.000585421
0.000631685
0.000680465
0.000731363
0.000783388
0.000835295
0.000885182
0.000929925
0.000965211
0.000988698
0.000997601
0.000992667
0.000972468
0.00093677
0.000881768
0.000790311
0.000630406
0.00040124
4.01326e-06
4.42178e-05
8.11774e-05
0.000116282
0.000147757
0.000175313
0.000201635
0.000228463
0.000255649
0.000283118
0.000310822
0.000338671
0.00036674
0.00039911
0.000438871
0.000482331
0.000527083
0.000572725
0.00061972
0.000668626
0.000719264
0.00077207
0.000825761
0.000877416
0.000923711
0.000961353
0.00098711
0.00099758
0.000993143
0.000973089
0.000937496
0.00088246
0.000790442
0.000633439
0.000411956
3.7981e-06
3.83595e-05
7.12844e-05
0.000103766
0.000134318
0.000161604
0.00018769
0.000214377
0.000241514
0.000268967
0.000296832
0.000325275
0.000357238
0.000394885
0.000436291
0.000479657
0.000524004
0.000569277
0.000616105
0.000665261
0.000716925
0.000770626
0.000824672
0.00087648
0.000922922
0.000960513
0.000985463
0.0009954
0.0009907
0.000970148
0.000934088
0.000879216
0.000789949
0.000639311
0.000431738
4.3218e-06
3.78813e-05
7.005e-05
0.000101471
0.000131125
0.000157941
0.000183715
0.000210107
0.000236994
0.000264316
0.000292172
0.000322557
0.000357591
0.000396542
0.000437851
0.000480582
0.000524299
0.000569327
0.000616232
0.000665948
0.000718586
0.000773017
0.000827588
0.000879151
0.000924398
0.000960943
0.000985803
0.00099511
0.00098925
0.000967162
0.000929558
0.000873633
0.000784221
0.000639384
0.000446688
5.3451e-06
4.0083e-05
7.28563e-05
0.00010371
0.000132256
0.000158453
0.000184058
0.000210373
0.000237221
0.000265107
0.000295779
0.000330448
0.000368402
0.000408638
0.00045037
0.000493099
0.000536983
0.000582311
0.000630064
0.000681163
0.000735499
0.000790652
0.000843551
0.000891643
0.000933032
0.000965362
0.000986684
0.000993742
0.000985213
0.000961078
0.000922781
0.000866771
0.000777804
0.000634121
0.000449814
6.83361e-06
4.5821e-05
8.12922e-05
0.00011271
0.000140246
0.00016575
0.000191323
0.00021769
0.000245504
0.000275991
0.000309576
0.000345917
0.00038445
0.000424672
0.000466115
0.000508468
0.000551939
0.000597368
0.000645415
0.000696363
0.000747979
0.000799101
0.000848649
0.000894991
0.000935303
0.000965704
0.00098323
0.000985826
0.000974675
0.000949854
0.000911579
0.000855566
0.000766751
0.000624868
0.00044737
8.19928e-06
5.17906e-05
9.00294e-05
0.000122382
0.00015011
0.000175837
0.00020169
0.000228557
0.000257252
0.000288586
0.00032263
0.000359143
0.000397619
0.000437312
0.000477968
0.000520175
0.000564305
0.000610434
0.000658401
0.000707576
0.00075821
0.000810057
0.000861263
0.000908159
0.000946096
0.000971796
0.000983492
0.000981493
0.000967238
0.000941932
0.000903137
0.000846374
0.000756305
0.000612202
0.000433767
9.22002e-06
5.67896e-05
9.78696e-05
0.000131762
0.000159965
0.0001861
0.000212669
0.000240183
0.000269398
0.000301236
0.000335625
0.000371951
0.000409813
0.00044943
0.000490753
0.000533367
0.000577088
0.000622351
0.000669168
0.000718588
0.000770902
0.000824841
0.000876849
0.000922052
0.000956067
0.000976056
0.000980955
0.000973729
0.000957544
0.000931932
0.000893582
0.000837358
0.000747631
0.000602516
0.000415807
9.81354e-06
6.04379e-05
0.000104393
0.000140696
0.000170318
0.000197534
0.000225341
0.000254198
0.000284064
0.000315534
0.000349151
0.00038481
0.000422464
0.000461703
0.000501976
0.000543164
0.000585609
0.000630149
0.000677412
0.000728555
0.000783652
0.000840257
0.0008933
0.000936603
0.000965541
0.000977319
0.000974954
0.000964021
0.000948327
0.000923938
0.000887372
0.000833325
0.000746745
0.000601382
0.000402856
1.00302e-05
6.19179e-05
0.000108108
0.000147183
0.000179034
0.000207735
0.000236753
0.000266952
0.00029834
0.000330754
0.000364164
0.000399112
0.000435813
0.000473887
0.000513168
0.000553593
0.00059552
0.000639926
0.000688259
0.000741529
0.000799311
0.000857531
0.000909505
0.000947179
0.000967687
0.000971466
0.000963177
0.000951041
0.000937081
0.000915829
0.000883038
0.000832926
0.000747302
0.000602428
0.000399123
1.00832e-05
6.20916e-05
0.000109816
0.000151963
0.000186833
0.000217351
0.00024742
0.000278665
0.000311198
0.000345014
0.000379982
0.000415851
0.000452327
0.000489507
0.000527827
0.000567464
0.00060877
0.000653016
0.000702094
0.000756498
0.000814808
0.000871458
0.000916772
0.000948957
0.000961433
0.000956269
0.000942743
0.000931981
0.000922181
0.000906021
0.00087839
0.00083342
0.000755078
0.000613974
0.000401369
1.00737e-05
6.14699e-05
0.000109952
0.000154764
0.000193024
0.000225613
0.000256731
0.000288999
0.00032249
0.000357229
0.000393202
0.000430327
0.000468423
0.000507204
0.000546316
0.000585545
0.000626102
0.000670323
0.000718991
0.000772008
0.000826713
0.000876278
0.00091638
0.000939167
0.00094255
0.000929783
0.000915117
0.000908171
0.000904611
0.000895251
0.000874312
0.000836726
0.00076721
0.000631827
0.000412355
1.02678e-05
6.06746e-05
0.000109326
0.000155766
0.000197075
0.000231866
0.000264385
0.000298084
0.000333051
0.000369212
0.000406527
0.000444945
0.00048437
0.00052467
0.000565693
0.000607342
0.000648692
0.00069084
0.000735937
0.000783645
0.0008301
0.000871969
0.000901325
0.000913836
0.000909255
0.000893817
0.000880263
0.000878245
0.000882487
0.0008818
0.000868548
0.000838722
0.000778972
0.000651901
0.000434515
1.11423e-05
6.13052e-05
0.000110418
0.000157693
0.000200505
0.000237569
0.000272272
0.000307741
0.000344466
0.000382473
0.000421762
0.000462242
0.000503624
0.000545564
0.000587586
0.000629038
0.00066909
0.000708187
0.000747181
0.000786689
0.000824669
0.000855206
0.00087442
0.000879145
0.000868765
0.000851901
0.000840619
0.000844025
0.0008583
0.000866937
0.000861532
0.00083866
0.00078566
0.00066778
0.000464248
1.28393e-05
6.54326e-05
0.000116302
0.000163285
0.000205237
0.000243392
0.000281055
0.000319932
0.00035966
0.000400009
0.000440805
0.000481885
0.00052305
0.000564004
0.000604374
0.000643665
0.000680444
0.000714724
0.000748807
0.000781825
0.000810063
0.000829552
0.000837698
0.000832866
0.000819011
0.000804017
0.000799184
0.000812777
0.000835883
0.000853016
0.000853305
0.000834153
0.000785927
0.0006706
0.000479272
1.52494e-05
7.31859e-05
0.000125972
0.000170701
0.000208807
0.00024667
0.000286131
0.000326711
0.000367905
0.000409399
0.000450985
0.000492478
0.000533707
0.000573872
0.000612525
0.000649014
0.000683209
0.000714396
0.000742378
0.00076622
0.00078288
0.000789047
0.000785593
0.000774481
0.000760869
0.000754685
0.000766788
0.000795448
0.00082635
0.00084636
0.000848296
0.000830823
0.000782328
0.000668925
0.000476764
1.73378e-05
8.22635e-05
0.000137472
0.000180503
0.00021745
0.00025419
0.000293048
0.000334414
0.000375966
0.00041738
0.000458532
0.000498873
0.000538209
0.000576757
0.000613777
0.000648283
0.000678955
0.000704582
0.000724831
0.000738623
0.000743991
0.00074145
0.00073215
0.00071956
0.000711613
0.000719911
0.000747855
0.000785085
0.000821946
0.000844719
0.000846917
0.000827817
0.000777492
0.000661828
0.000467637
1.81008e-05
8.8877e-05
0.00014692
0.000189548
0.000226444
0.000263869
0.00030248
0.000342547
0.000383036
0.000422699
0.000461552
0.000500027
0.000537586
0.000573513
0.000607089
0.000637414
0.000663376
0.000683647
0.000697183
0.000703114
0.000701699
0.000693805
0.00068174
0.000671417
0.000673601
0.000695287
0.000733248
0.000781008
0.000821326
0.000843669
0.000844585
0.000824724
0.000774546
0.000660882
0.000468344
1.80819e-05
9.11136e-05
0.000150302
0.000194018
0.000232216
0.000271133
0.00031052
0.000348882
0.000386818
0.000424244
0.000460897
0.000496355
0.000530293
0.000562228
0.00059147
0.000617123
0.000638087
0.000653045
0.000660701
0.000660593
0.000653705
0.000642298
0.000631288
0.000629315
0.000645028
0.000682555
0.000731833
0.00078103
0.000821527
0.000842881
0.000842672
0.000821298
0.000769726
0.000657075
0.000472465
1.74995e-05