/*--------------------------------*- C++ -*----------------------------------*\
| =========                 |                                                 |
| \\      /  F ield         | OpenFOAM: The Open Source CFD Toolbox           |
|  \\    /   O peration     | Version:  v1906                                 |
|   \\  /    A nd           | Web:      www.OpenFOAM.com                      |
|    \\/     M anipulation  |                                                 |
\*---------------------------------------------------------------------------*/
FoamFile
{
    version     2.0;
    format      ascii;
    class       volScalarField;
    location    "950";
    object      nut;
}
// * * * * * * * * * * * * * * * * * * * * * * * * * * * * * * * * * * * * * //

dimensions      [0 2 -1 0 0 0 0];


internalField   nonuniform List<scalar> 
78750
(
3.99215e-08
1.46181e-06
1.82167e-06
1.92342e-06
1.99987e-06
2.07916e-06
2.15566e-06
2.22167e-06
2.27636e-06
2.32147e-06
2.35893e-06
2.3905e-06
2.41801e-06
2.44335e-06
2.46788e-06
2.49276e-06
2.51973e-06
2.54937e-06
2.58009e-06
2.6147e-06
2.65129e-06
2.69083e-06
2.73104e-06
2.77029e-06
2.80737e-06
2.84266e-06
2.8776e-06
2.91235e-06
2.95238e-06
2.96393e-06
2.83419e-06
2.31355e-06
1.84915e-06
1.15652e-06
2.22094e-08
8.82246e-08
3.29203e-06
1.48393e-06
1.75028e-06
3.05046e-06
5.46047e-06
5.22136e-06
4.97871e-06
4.74662e-06
4.5356e-06
4.34861e-06
4.18794e-06
4.01354e-06
3.79276e-06
3.58126e-06
3.32972e-06
3.01227e-06
2.64299e-06
2.27285e-06
1.97406e-06
1.89027e-06
2.06855e-06
2.53369e-06
3.53031e-06
5.04949e-06
5.84588e-06
4.6774e-06
3.8201e-06
3.83656e-06
4.05747e-06
4.50126e-06
5.40838e-06
8.09432e-06
3.66288e-06
6.53371e-08
1.07122e-07
4.84592e-06
1.49514e-06
1.13206e-06
1.30441e-06
1.82741e-06
2.56244e-06
3.22001e-06
4.07572e-06
4.00554e-06
3.95511e-06
3.92997e-06
3.9157e-06
3.90224e-06
3.88336e-06
3.853e-06
3.8052e-06
3.73874e-06
3.65852e-06
3.57113e-06
3.49318e-06
2.72742e-06
2.19008e-06
2.38037e-06
2.60927e-06
3.20375e-06
5.28135e-06
6.38543e-06
3.52484e-06
2.71985e-06
2.84306e-06
3.59183e-06
6.59911e-06
5.91967e-06
8.69964e-08
1.1637e-07
3.55937e-06
1.96574e-06
1.20048e-06
1.13513e-06
1.35728e-06
1.87869e-06
2.72584e-06
3.64278e-06
4.3258e-06
4.46173e-06
4.58971e-06
4.6897e-06
4.74236e-06
4.73939e-06
4.68659e-06
4.57422e-06
4.40229e-06
4.17439e-06
3.90441e-06
3.65108e-06
3.25344e-06
2.84658e-06
2.98494e-06
4.04461e-06
5.37933e-06
7.08656e-06
5.95033e-06
4.69495e-06
4.42847e-06
4.60428e-06
5.68745e-06
9.88723e-06
6.67277e-06
1.05608e-07
1.20374e-07
2.93077e-06
2.28656e-06
1.23205e-06
1.07572e-06
1.19968e-06
1.64887e-06
2.36463e-06
3.37668e-06
5.43588e-06
6.87131e-06
7.31454e-06
7.58707e-06
7.66324e-06
7.56023e-06
7.29284e-06
6.88911e-06
6.35469e-06
5.68453e-06
4.20031e-06
3.16567e-06
3.17083e-06
4.20542e-06
7.16319e-06
1.28369e-05
1.72601e-05
1.14848e-05
8.55136e-06
6.63196e-06
6.17875e-06
7.14798e-06
9.20698e-06
1.51227e-05
6.03526e-06
1.25652e-07
1.25278e-07
2.42816e-06
3.02639e-06
1.41833e-06
1.14595e-06
1.21924e-06
1.64435e-06
2.5894e-06
3.93721e-06
6.30877e-06
1.05591e-05
1.13372e-05
1.18357e-05
1.20469e-05
1.21275e-05
9.85799e-06
7.77936e-06
6.65958e-06
7.01317e-06
9.54169e-06
1.33819e-05
2.09543e-05
2.81073e-05
2.50441e-05
1.50158e-05
1.21344e-05
8.9272e-06
7.85332e-06
9.23515e-06
1.09324e-05
1.31643e-05
1.61435e-05
1.68571e-05
4.94523e-06
1.30559e-07
1.25065e-07
2.18112e-06
3.89516e-06
1.61831e-06
1.23707e-06
1.32417e-06
1.90891e-06
3.17438e-06
5.60097e-06
1.14993e-05
1.65214e-05
1.82165e-05
1.66761e-05
1.19779e-05
9.62771e-06
9.78182e-06
1.21444e-05
1.61769e-05
2.33921e-05
3.46521e-05
3.70788e-05
2.56539e-05
1.71282e-05
1.44701e-05
9.88468e-06
9.215e-06
1.24688e-05
1.45961e-05
1.62263e-05
1.75917e-05
1.89912e-05
1.9184e-05
1.46969e-05
4.31408e-06
1.35391e-07
1.25089e-07
2.01637e-06
4.99234e-06
1.92521e-06
1.44158e-06
1.5832e-06
2.34622e-06
4.45725e-06
9.32771e-06
1.79097e-05
1.8789e-05
1.35076e-05
1.20307e-05
1.28654e-05
1.52322e-05
2.04871e-05
2.97673e-05
3.81535e-05
4.01689e-05
3.11748e-05
1.88446e-05
1.58597e-05
1.10388e-05
1.06404e-05
1.54689e-05
1.88388e-05
2.01872e-05
2.08621e-05
2.19705e-05
2.32639e-05
2.41469e-05
2.30063e-05
1.49324e-05
4.14801e-06
1.48646e-07
1.2477e-07
1.94499e-06
5.87732e-06
2.22205e-06
1.66928e-06
1.92083e-06
3.03815e-06
6.53957e-06
1.62948e-05
2.23346e-05
1.8535e-05
1.55213e-05
1.58984e-05
1.94073e-05
2.62885e-05
3.71046e-05
3.88057e-05
4.0548e-05
2.82639e-05
1.6579e-05
1.5149e-05
1.28911e-05
1.32098e-05
1.86354e-05
2.10007e-05
2.17474e-05
2.2279e-05
2.36528e-05
2.55422e-05
2.7141e-05
2.83585e-05
2.71847e-05
1.64794e-05
4.32147e-06
1.79436e-07
1.24965e-07
1.89357e-06
6.64576e-06
2.53695e-06
1.93717e-06
2.31014e-06
3.78232e-06
8.49869e-06
2.07965e-05
2.31774e-05
2.2124e-05
1.86985e-05
2.03712e-05
2.66698e-05
3.50938e-05
3.67617e-05
3.83621e-05
2.92232e-05
1.82432e-05
1.68058e-05
1.48939e-05
1.4241e-05
1.71809e-05
1.89536e-05
1.96433e-05
2.04088e-05
2.17199e-05
2.35617e-05
2.5711e-05
2.77894e-05
2.95461e-05
2.84217e-05
1.64725e-05
4.34314e-06
2.08183e-07
1.23407e-07
1.85837e-06
7.46712e-06
2.91109e-06
2.19968e-06
2.61499e-06
4.18514e-06
8.96632e-06
2.11721e-05
2.32774e-05
2.55458e-05
2.35234e-05
2.4355e-05
3.09333e-05
3.39186e-05
3.54159e-05
3.68565e-05
2.37841e-05
1.74413e-05
1.71531e-05
1.59413e-05
1.50688e-05
1.66493e-05
1.78534e-05
1.89486e-05
2.02288e-05
2.18551e-05
2.37652e-05
2.59059e-05
2.81631e-05
3.03162e-05
2.92893e-05
1.66151e-05
4.45751e-06
2.26623e-07
1.17116e-07
1.79221e-06
7.75796e-06
3.56729e-06
2.52448e-06
2.79021e-06
4.07119e-06
7.72386e-06
1.94312e-05
2.26307e-05
2.45618e-05
2.66017e-05
2.6727e-05
3.06288e-05
3.24088e-05
3.41305e-05
3.51127e-05
2.32961e-05
1.79854e-05
1.78788e-05
1.6592e-05
1.56157e-05
1.71067e-05
1.85282e-05
1.97469e-05
2.10598e-05
2.26116e-05
2.44481e-05
2.676e-05
2.96967e-05
3.29437e-05
3.25219e-05
1.82008e-05
4.78876e-06
2.37966e-07
1.07964e-07
1.72045e-06
7.20603e-06
4.37756e-06
2.88119e-06
2.90056e-06
3.8176e-06
6.51256e-06
1.48747e-05
2.16283e-05
2.34704e-05
2.54957e-05
2.62265e-05
2.97558e-05
3.18118e-05
3.389e-05
3.23964e-05
2.29608e-05
1.90491e-05
1.97521e-05
1.85678e-05
1.72207e-05
1.84687e-05
1.9619e-05
2.026e-05
2.07847e-05
2.17739e-05
2.35756e-05
2.60947e-05
2.98953e-05
3.40087e-05
3.39404e-05
1.88522e-05
4.94317e-06
2.52069e-07
9.8446e-08
1.65824e-06
6.55415e-06
5.30011e-06
3.30991e-06
3.05361e-06
3.7184e-06
5.94565e-06
1.29209e-05
2.08866e-05
2.27541e-05
2.48825e-05
2.60023e-05
2.95364e-05
3.18676e-05
3.42523e-05
3.11382e-05
2.40266e-05
2.08691e-05
2.16907e-05
2.0432e-05
1.8809e-05
1.95944e-05
2.01413e-05
2.02987e-05
2.0554e-05
2.09623e-05
2.21809e-05
2.50201e-05
2.9518e-05
3.43688e-05
3.45905e-05
1.92205e-05
5.11236e-06
2.71463e-07
8.86685e-08
1.59428e-06
5.85089e-06
6.1831e-06
3.71923e-06
3.2639e-06
3.74738e-06
5.69883e-06
1.19238e-05
2.03426e-05
2.22564e-05
2.44964e-05
2.6634e-05
2.94587e-05
3.19893e-05
3.45819e-05
3.0221e-05
2.48975e-05
2.26636e-05
2.36858e-05
2.2507e-05
2.06275e-05
2.07077e-05
2.05435e-05
2.02286e-05
2.00421e-05
2.01794e-05
2.12737e-05
2.41872e-05
2.93843e-05
3.56161e-05
3.70505e-05
2.08619e-05
5.46325e-06
2.91762e-07
7.88159e-08
1.54533e-06
5.45056e-06
7.14708e-06
4.28584e-06
3.55297e-06
3.93839e-06
5.86641e-06
1.19631e-05
2.01199e-05
2.20892e-05
2.36523e-05
2.66146e-05
2.9639e-05
3.24048e-05
3.46267e-05
2.98398e-05
2.62118e-05
2.48103e-05
2.62152e-05
2.49911e-05
2.25339e-05
2.1852e-05
2.0942e-05
1.99664e-05
1.91194e-05
1.86745e-05
1.96365e-05
2.29595e-05
2.91218e-05
3.66375e-05
3.88794e-05
2.20881e-05
5.68727e-06
3.11046e-07
7.05998e-08
1.51806e-06
5.29456e-06
7.88611e-06
4.83107e-06
3.91996e-06
4.37375e-06
6.64353e-06
1.32028e-05
2.01521e-05
2.22192e-05
2.34256e-05
2.74141e-05
3.04601e-05
3.34898e-05
3.32224e-05
3.06805e-05
2.86953e-05
2.81023e-05
2.87164e-05
2.87399e-05
2.56262e-05
2.30061e-05
2.16908e-05
2.00241e-05
1.83739e-05
1.74343e-05
1.76985e-05
2.05628e-05
2.73154e-05
3.61558e-05
3.93433e-05
2.25943e-05
5.78813e-06
3.42732e-07
6.38617e-08
1.49513e-06
5.1827e-06
8.35412e-06
5.33929e-06
4.39781e-06
5.04471e-06
7.89245e-06
1.47734e-05
2.06717e-05
2.26717e-05
2.49046e-05
2.857e-05
3.16233e-05
3.29787e-05
3.25997e-05
3.15247e-05
3.0825e-05
3.07216e-05
3.09029e-05
3.18043e-05
2.95472e-05
2.58928e-05
2.34186e-05
2.06193e-05
1.78569e-05
1.6074e-05
1.61341e-05
1.86335e-05
2.45874e-05
3.44816e-05
4.0605e-05
2.44315e-05
6.05082e-06
3.90232e-07
5.82139e-08
1.47476e-06
5.0984e-06
8.77993e-06
5.9286e-06
5.0243e-06
5.94455e-06
9.50107e-06
1.60216e-05
2.07033e-05
2.30261e-05
2.56755e-05
2.85329e-05
3.04747e-05
3.13421e-05
3.12621e-05
3.10673e-05
3.13757e-05
3.21517e-05
3.30398e-05
3.4177e-05
3.17353e-05
2.69631e-05
2.29716e-05
1.95014e-05
1.70007e-05
1.58496e-05
1.62029e-05
1.84338e-05
2.3472e-05
3.22885e-05
4.02287e-05
2.52353e-05
6.28256e-06
4.31304e-07
5.42887e-08
1.4441e-06
4.86781e-06
9.15392e-06
6.55573e-06
5.80734e-06
7.15856e-06
1.08904e-05
1.62352e-05
2.00161e-05
2.2675e-05
2.5269e-05
2.7623e-05
2.95775e-05
3.0635e-05
3.12389e-05
3.20009e-05
3.29832e-05
3.38295e-05
3.41791e-05
3.46357e-05
3.03563e-05
2.4215e-05
2.00486e-05
1.72155e-05
1.58923e-05
1.60866e-05
1.75867e-05
2.05174e-05
2.55949e-05
3.33977e-05
3.94344e-05
2.47351e-05
6.41129e-06
4.34706e-07
5.29501e-08
1.41413e-06
4.66372e-06
9.24001e-06
7.33333e-06
6.96329e-06
8.53506e-06
1.21283e-05
1.63867e-05
1.94584e-05
2.1977e-05
2.47915e-05
2.75642e-05
2.98687e-05
3.15065e-05
3.2783e-05
3.40315e-05
3.51498e-05
3.55257e-05
3.41588e-05
3.24865e-05
2.40338e-05
1.74747e-05
1.548e-05
1.52874e-05
1.62174e-05
1.81408e-05
2.11659e-05
2.54709e-05
3.10516e-05
3.70449e-05
3.92253e-05
2.38149e-05
6.42643e-06
4.2134e-07
5.43895e-08
1.41528e-06
4.53723e-06
9.23175e-06
8.45022e-06
8.34545e-06
1.02767e-05
1.38141e-05
1.72699e-05
2.01102e-05
2.31456e-05
2.66594e-05
3.01894e-05
3.32082e-05
3.56501e-05
3.77431e-05
3.9396e-05
3.97405e-05
3.68958e-05
3.01594e-05
2.51114e-05
1.66486e-05
1.34121e-05
1.43909e-05
1.57723e-05
1.76816e-05
2.06205e-05
2.48959e-05
3.03304e-05
3.5987e-05
4.00557e-05
3.87632e-05
2.20945e-05
6.32215e-06
4.08128e-07
5.74761e-08
1.38516e-06
4.27448e-06
9.0219e-06
9.58164e-06
1.02551e-05
1.25775e-05
1.58271e-05
1.88632e-05
2.19383e-05
2.5619e-05
2.97766e-05
3.3857e-05
3.74313e-05
4.05373e-05
4.31056e-05
4.4098e-05
4.01692e-05
3.00861e-05
2.4911e-05
1.75637e-05
1.28027e-05
1.27237e-05
1.45056e-05
1.65377e-05
1.90683e-05
2.28305e-05
2.79232e-05
3.39294e-05
3.96728e-05
4.30416e-05
3.98093e-05
2.11773e-05
6.23696e-06
4.14496e-07
5.8225e-08
1.34691e-06
4.00565e-06
8.70296e-06
1.05978e-05
1.21555e-05
1.47525e-05
1.77848e-05
2.08595e-05
2.43781e-05
2.85512e-05
3.30538e-05
3.73861e-05
4.12789e-05
4.46297e-05
4.69701e-05
4.58068e-05
3.73008e-05
2.5907e-05
2.09266e-05
1.48173e-05
1.22149e-05
1.32289e-05
1.46615e-05
1.63323e-05
1.86631e-05
2.24399e-05
2.80531e-05
3.50888e-05
4.17513e-05
4.55012e-05
4.2029e-05
2.17839e-05
6.33326e-06
4.4818e-07
5.74146e-08
1.29133e-06
3.65533e-06
8.39761e-06
1.14263e-05
1.35447e-05
1.61298e-05
1.89581e-05
2.21276e-05
2.60311e-05
3.06356e-05
3.54817e-05
4.01126e-05
4.42901e-05
4.79744e-05
5.04985e-05
4.85124e-05
3.75979e-05
2.53337e-05
2.08491e-05
1.5737e-05
1.29291e-05
1.34784e-05
1.46453e-05
1.57532e-05
1.69872e-05
1.91663e-05
2.37999e-05
3.22195e-05
4.03516e-05
4.37215e-05
4.11369e-05
2.17384e-05
6.35613e-06
4.88472e-07
5.24778e-08
1.25158e-06
3.42822e-06
7.88896e-06
1.19968e-05
1.4814e-05
1.73638e-05
2.00591e-05
2.34028e-05
2.75035e-05
3.22883e-05
3.74199e-05
4.25708e-05
4.77023e-05
5.28157e-05
5.75464e-05
5.91374e-05
4.93352e-05
3.11239e-05
2.05019e-05
1.78034e-05
1.57206e-05
1.40009e-05
1.4404e-05
1.51153e-05
1.54256e-05
1.6208e-05
1.84503e-05
2.28341e-05
3.15877e-05
4.05922e-05
3.8067e-05
2.07417e-05
6.17842e-06
5.79358e-07
4.22828e-08
1.16294e-06
3.00029e-06
6.86246e-06
1.12571e-05
1.43339e-05
1.71807e-05
2.00615e-05
2.34242e-05
2.76086e-05
3.22636e-05
3.71383e-05
4.21215e-05
4.72695e-05
5.24659e-05
5.72179e-05
5.96466e-05
5.72637e-05
4.36721e-05
2.90704e-05
2.02031e-05
1.94608e-05
1.90731e-05
1.70835e-05
1.65997e-05
1.51969e-05
1.28593e-05
1.16914e-05
1.35374e-05
1.91004e-05
2.8398e-05
4.00636e-05
2.51176e-05
6.68745e-06
9.2117e-07
2.80932e-08
1.03714e-06
2.51113e-06
5.60187e-06
1.01918e-05
1.38363e-05
1.64836e-05
1.9007e-05
2.16391e-05
2.48634e-05
2.80556e-05
3.10845e-05
3.38812e-05
3.63965e-05
3.84822e-05
3.96949e-05
3.93329e-05
3.65851e-05
3.14049e-05
2.59404e-05
2.07496e-05
2.24665e-05
2.366e-05
2.07268e-05
1.98467e-05
1.83732e-05
1.71285e-05
1.35722e-05
1.04585e-05
1.05726e-05
1.4906e-05
2.80105e-05
3.34291e-05
7.50229e-06
1.14205e-06
1.8714e-08
1.00595e-06
2.30376e-06
4.92205e-06
9.24062e-06
1.32217e-05
1.58728e-05
1.80905e-05
1.98646e-05
2.16578e-05
2.37114e-05
2.55261e-05
2.7026e-05
2.81667e-05
2.88236e-05
2.88213e-05
2.7971e-05
2.63683e-05
2.42333e-05
2.09717e-05
1.65276e-05
1.76938e-05
1.82566e-05
1.52707e-05
1.55662e-05
1.65223e-05
1.75007e-05
1.80563e-05
1.72234e-05
1.5522e-05
1.58704e-05
2.04165e-05
3.27084e-05
8.19718e-06
1.1046e-06
1.84348e-08
1.13453e-06
2.53939e-06
5.01888e-06
9.04075e-06
1.34054e-05
1.6415e-05
1.83655e-05
1.98371e-05
2.10658e-05
2.23136e-05
2.33819e-05
2.41216e-05
2.45062e-05
2.45537e-05
2.40753e-05
2.3057e-05
2.14876e-05
1.93603e-05
1.73269e-05
1.67465e-05
1.75741e-05
1.74587e-05
1.66052e-05
1.67672e-05
1.7883e-05
1.95871e-05
2.15522e-05
2.33378e-05
2.40851e-05
2.53712e-05
3.25738e-05
3.00834e-05
7.20629e-06
7.41762e-07
2.39037e-08
1.28132e-06
2.90128e-06
5.59732e-06
9.75921e-06
1.40285e-05
1.70724e-05
1.92021e-05
2.09167e-05
2.25319e-05
2.40343e-05
2.54896e-05
2.67501e-05
2.77009e-05
2.81217e-05
2.78884e-05
2.70761e-05
2.5502e-05
2.33991e-05
2.32526e-05
1.66738e-05
1.3232e-05
1.34738e-05
1.40281e-05
1.50033e-05
1.6421e-05
1.87636e-05
2.22777e-05
2.67026e-05
3.1866e-05
3.61375e-05
3.61461e-05
2.14882e-05
6.12877e-06
5.90186e-07
3.33629e-08
1.40613e-06
3.41747e-06
6.57337e-06
1.06225e-05
1.45042e-05
1.76355e-05
2.02402e-05
2.25865e-05
2.48897e-05
2.73161e-05
2.99116e-05
3.28149e-05
3.59479e-05
3.92079e-05
4.05611e-05
3.53793e-05
2.45804e-05
1.92796e-05
1.61071e-05
1.03503e-05
9.48114e-06
1.21118e-05
1.42269e-05
1.66658e-05
2.02075e-05
2.43285e-05
2.86914e-05
3.41838e-05
3.89633e-05
4.05514e-05
3.50236e-05
1.7253e-05
5.64305e-06
5.92276e-07
3.69232e-08
1.45721e-06
3.78235e-06
7.56065e-06
1.18183e-05
1.52963e-05
1.79395e-05
2.03581e-05
2.27733e-05
2.52991e-05
2.80318e-05
3.09027e-05
3.36365e-05
3.55568e-05
3.63188e-05
3.39919e-05
2.70911e-05
1.88838e-05
1.38092e-05
1.0248e-05
9.24637e-06
1.06278e-05
1.29525e-05
1.60819e-05
1.98443e-05
2.3879e-05
2.80884e-05
3.32757e-05
3.86284e-05
4.34734e-05
4.61377e-05
4.07302e-05
1.95217e-05
5.99592e-06
7.36307e-07
3.68971e-08
1.51881e-06
4.03497e-06
8.24092e-06
1.28112e-05
1.61482e-05
1.85071e-05
2.06428e-05
2.26075e-05
2.43634e-05
2.59031e-05
2.72519e-05
2.82158e-05
2.84324e-05
2.55357e-05
1.84051e-05
1.26057e-05
9.94459e-06
9.75525e-06
1.02222e-05
1.1468e-05
1.3897e-05
1.69386e-05
2.05839e-05
2.44539e-05
2.78432e-05
3.06801e-05
3.35408e-05
3.75295e-05
4.25766e-05
4.49617e-05
4.02162e-05
1.97255e-05
6.0313e-06
7.36277e-07
4.27925e-08
1.60091e-06
4.33526e-06
8.89248e-06
1.27898e-05
1.52052e-05
1.73232e-05
1.90557e-05
2.04152e-05
2.17493e-05
2.28764e-05
2.34581e-05
2.21912e-05
1.81758e-05
1.24301e-05
1.13007e-05
9.37154e-06
8.58851e-06
1.0313e-05
1.23749e-05
1.48909e-05
1.78988e-05
2.09182e-05
2.41332e-05
2.78567e-05
3.14838e-05
3.44364e-05
3.61889e-05
3.82354e-05
4.1363e-05
4.35906e-05
3.7176e-05
1.75523e-05
5.6435e-06
6.05395e-07
6.26285e-08
1.79917e-06
4.9076e-06
9.20962e-06
1.24944e-05
1.50036e-05
1.72386e-05
2.00382e-05
2.27186e-05
2.44093e-05
2.43854e-05
1.93752e-05
1.4004e-05
1.05024e-05
1.11765e-05
9.22953e-06
8.55616e-06
1.17597e-05
1.30803e-05
1.41643e-05
1.55394e-05
1.73949e-05
2.02687e-05
2.39462e-05
2.7861e-05
3.2478e-05
3.7323e-05
4.01228e-05
4.18404e-05
4.29128e-05
4.20805e-05
3.3939e-05
1.58305e-05
5.38487e-06
5.45033e-07
8.28424e-08
1.8397e-06
5.22238e-06
1.0006e-05
1.37458e-05
1.69881e-05
2.01563e-05
2.32608e-05
2.56422e-05
2.54324e-05
1.96453e-05
1.3668e-05
8.69523e-06
7.5513e-06
9.62796e-06
8.84279e-06
9.09801e-06
1.19575e-05
1.21289e-05
1.25813e-05
1.40033e-05
1.60721e-05
1.88459e-05
2.2247e-05
2.60867e-05
3.02828e-05
3.47364e-05
4.1096e-05
4.53654e-05
4.49096e-05
4.06348e-05
2.91291e-05
1.358e-05
5.0585e-06
5.72745e-07
8.44195e-08
1.75338e-06
5.06373e-06
1.16697e-05
1.69954e-05
2.03171e-05
2.35586e-05
2.63722e-05
2.62022e-05
2.13587e-05
1.39865e-05
8.58496e-06
6.80019e-06
8.13858e-06
9.06044e-06
9.63112e-06
1.21028e-05
1.25567e-05
1.23819e-05
1.28133e-05
1.36642e-05
1.51892e-05
1.66401e-05
1.82522e-05
2.14585e-05
2.66771e-05
3.22768e-05
3.81613e-05
4.29698e-05
4.59099e-05
4.54615e-05
3.37428e-05
1.49819e-05
5.36946e-06
7.48084e-07
6.22441e-08
1.58777e-06
4.52041e-06
1.05161e-05
1.6633e-05
2.11546e-05
2.4276e-05
2.5909e-05
2.45704e-05
1.68052e-05
1.01208e-05
7.35573e-06
6.82231e-06
7.88823e-06
9.81827e-06
1.16287e-05
1.23037e-05
1.17562e-05
1.16259e-05
1.26809e-05
1.46542e-05
1.71589e-05
1.96753e-05
2.17765e-05
2.25826e-05
2.31923e-05
2.56435e-05
3.00666e-05
3.74038e-05
4.43641e-05
4.55559e-05
3.75712e-05
1.80677e-05
5.87682e-06
9.42329e-07
3.16698e-08
1.30068e-06
3.22028e-06
7.44528e-06
1.42757e-05
2.02389e-05
2.39557e-05
2.57468e-05
2.28084e-05
1.56773e-05
1.02149e-05
7.66916e-06
6.82934e-06
8.07937e-06
9.68173e-06
9.43016e-06
8.99413e-06
8.11521e-06
8.00946e-06
1.01398e-05
1.43178e-05
1.86561e-05
2.14951e-05
2.31938e-05
2.4553e-05
2.65081e-05
2.93317e-05
3.17949e-05
3.30704e-05
3.70909e-05
4.29889e-05
3.90634e-05
1.87298e-05
6.02746e-06
9.68509e-07
1.17349e-08
1.04817e-06
2.23596e-06
4.6949e-06
9.82031e-06
1.67046e-05
2.17357e-05
2.4232e-05
2.2704e-05
1.75221e-05
1.20518e-05
8.84725e-06
7.13332e-06
7.27646e-06
9.6736e-06
9.14114e-06
7.28709e-06
7.07104e-06
7.75377e-06
9.71934e-06
1.3092e-05
1.752e-05
2.15715e-05
2.45717e-05
2.63929e-05
2.7999e-05
3.04352e-05
3.42401e-05
3.92239e-05
4.18441e-05
4.30121e-05
4.04063e-05
2.08626e-05
6.26661e-06
9.57423e-07
3.20336e-09
9.4519e-07
1.49609e-06
2.46539e-06
4.47065e-06
8.81341e-06
1.56479e-05
1.95462e-05
1.90329e-05
1.58426e-05
1.31541e-05
1.13368e-05
9.83398e-06
7.1148e-06
7.48222e-06
8.91139e-06
7.31667e-06
6.68642e-06
6.94798e-06
8.38028e-06
1.1121e-05
1.52379e-05
1.95949e-05
2.29924e-05
2.54354e-05
2.76962e-05
3.0595e-05
3.48087e-05
3.97834e-05
4.36201e-05
4.4673e-05
3.96662e-05
1.98024e-05
6.29066e-06
8.94336e-07
6.48702e-09
1.84669e-06
1.71001e-06
2.0387e-06
2.76462e-06
4.73787e-06
8.83428e-06
1.41473e-05
1.6149e-05
1.5242e-05
1.27642e-05
1.10032e-05
9.51531e-06
6.36669e-06
6.29804e-06
7.30463e-06
6.65155e-06
7.60816e-06
9.06597e-06
1.06113e-05
1.27607e-05
1.53536e-05
1.82803e-05
2.12894e-05
2.41181e-05
2.68793e-05
2.99291e-05
3.36897e-05
3.84339e-05
4.28167e-05
4.49053e-05
4.00184e-05
1.97588e-05
6.171e-06
8.60368e-07
1.45866e-08
3.36442e-06
2.87303e-06
2.96381e-06
4.16203e-06
6.13702e-06
9.49105e-06
1.28102e-05
1.29565e-05
1.12607e-05
9.0956e-06
7.18665e-06
5.53101e-06
5.71398e-06
6.79212e-06
7.67083e-06
9.56211e-06
1.05843e-05
1.23411e-05
1.48365e-05
1.70767e-05
1.91056e-05
2.09887e-05
2.276e-05
2.45078e-05
2.64143e-05
2.88236e-05
3.21637e-05
3.65017e-05
4.17549e-05
4.50947e-05
4.01425e-05
1.96984e-05
6.15724e-06
8.59228e-07
2.26244e-08
2.74381e-06
5.44513e-06
7.3118e-06
9.06598e-06
1.07249e-05
1.08805e-05
9.96144e-06
8.64719e-06
7.43483e-06
6.41849e-06
6.84675e-06
8.2411e-06
9.17573e-06
1.12672e-05
1.66749e-05
2.1244e-05
1.92796e-05
1.76935e-05
1.77201e-05
1.89992e-05
2.13945e-05
2.39136e-05
2.55303e-05
2.63319e-05
2.68377e-05
2.79e-05
3.04348e-05
3.50717e-05
4.09443e-05
4.47041e-05
4.08058e-05
2.01465e-05
6.19723e-06
8.99098e-07
2.35957e-08
2.69821e-06
8.84626e-06
1.52518e-05
1.40331e-05
9.83999e-06
8.09133e-06
8.11566e-06
9.30369e-06
1.08055e-05
1.27457e-05
1.62292e-05
1.81549e-05
1.99538e-05
2.28784e-05
2.57259e-05
2.55122e-05
2.37974e-05
2.40086e-05
2.51829e-05
2.65182e-05
2.80601e-05
2.93027e-05
2.96168e-05
2.92106e-05
2.85246e-05
2.81962e-05
2.89629e-05
3.15282e-05
3.71241e-05
4.34869e-05
4.17232e-05
2.08201e-05
6.21183e-06
9.24174e-07
1.35785e-08
2.84747e-06
8.45244e-06
7.22793e-06
7.27971e-06
8.92689e-06
1.13834e-05
1.43167e-05
1.70424e-05
2.12306e-05
2.82473e-05
3.35486e-05
3.61846e-05
3.73545e-05
3.833e-05
3.95748e-05
3.77437e-05
3.45928e-05
3.29855e-05
3.23463e-05
3.21369e-05
3.20043e-05
3.18188e-05
3.1394e-05
3.07178e-05
3.01442e-05
3.00895e-05
3.10226e-05
3.36857e-05
3.74517e-05
4.13833e-05
4.16529e-05
2.16474e-05
6.21372e-06
9.14649e-07
8.23349e-09
5.05753e-06
6.60485e-06
8.20163e-06
1.06903e-05
1.51408e-05
2.28797e-05
3.25162e-05
4.17137e-05
4.51726e-05
4.85483e-05
5.0928e-05
5.00397e-05
4.9464e-05
4.93837e-05
4.50834e-05
3.96907e-05
3.72918e-05
3.64366e-05
3.58543e-05
3.49542e-05
3.38117e-05
3.28043e-05
3.20977e-05
3.16652e-05
3.15249e-05
3.18085e-05
3.27888e-05
3.49843e-05
3.88357e-05
4.29191e-05
4.01893e-05
2.09956e-05
6.15911e-06
8.61563e-07
9.96477e-09
4.83938e-06
7.9084e-06
1.23221e-05
1.87985e-05
2.72842e-05
3.62323e-05
4.34231e-05
4.68591e-05
5.03138e-05
5.37614e-05
5.71875e-05
6.05744e-05
5.88829e-05
5.53452e-05
4.86154e-05
4.22478e-05
3.86585e-05
3.6307e-05
3.44439e-05
3.29784e-05
3.2038e-05
3.15794e-05
3.15381e-05
3.19624e-05
3.28365e-05
3.41149e-05
3.58158e-05
3.80335e-05
4.07505e-05
4.2941e-05
3.88378e-05
1.90325e-05
5.91295e-06
7.968e-07
1.02825e-08
4.41483e-06
7.90204e-06
1.29751e-05
2.07802e-05
3.14923e-05
4.04356e-05
4.4011e-05
4.75675e-05
5.10789e-05
5.45359e-05
5.79393e-05
6.12891e-05
6.45906e-05
5.9506e-05
4.52622e-05
3.75414e-05
3.3748e-05
3.17277e-05
3.06497e-05
3.02584e-05
3.02991e-05
3.06191e-05
3.12579e-05
3.22693e-05
3.37612e-05
3.57078e-05
3.79809e-05
4.03763e-05
4.25028e-05
4.31605e-05
3.77989e-05
1.84665e-05
5.78396e-06
7.7346e-07
9.9786e-09
4.45773e-06
7.99167e-06
1.32515e-05
2.20426e-05
3.43814e-05
4.03158e-05
4.39505e-05
4.75239e-05
5.10403e-05
5.44958e-05
5.78882e-05
6.12112e-05
6.44413e-05
5.23927e-05
3.87644e-05
3.24492e-05
3.00458e-05
2.92272e-05
2.90669e-05
2.9321e-05
2.98804e-05
3.07629e-05
3.18094e-05
3.28935e-05
3.4335e-05
3.63562e-05
3.87558e-05
4.12025e-05
4.30573e-05
4.29627e-05
3.63312e-05
1.75183e-05
5.68318e-06
7.73233e-07
8.98616e-09
4.17355e-06
7.65129e-06
1.30493e-05
2.24144e-05
3.52046e-05
3.89436e-05
4.25967e-05
4.61504e-05
4.96044e-05
5.29614e-05
5.62237e-05
5.93913e-05
5.48041e-05
3.87328e-05
3.10151e-05
2.83199e-05
2.78476e-05
2.83208e-05
2.92719e-05
3.08448e-05
3.23008e-05
3.25218e-05
3.23231e-05
3.29036e-05
3.43711e-05
3.65608e-05
3.92793e-05
4.2045e-05
4.40389e-05
4.35751e-05
3.59839e-05
1.67857e-05
5.52461e-06
7.84727e-07
7.6365e-09
3.72093e-06
6.8353e-06
1.20087e-05
2.1349e-05
3.27367e-05
3.65556e-05
4.02611e-05
4.38455e-05
4.73118e-05
5.06654e-05
5.39041e-05
5.42688e-05
3.85033e-05
3.04957e-05
2.77854e-05
2.76218e-05
2.87071e-05
3.07361e-05
3.36143e-05
3.45669e-05
3.36056e-05
3.28966e-05
3.26547e-05
3.30092e-05
3.40772e-05
3.58269e-05
3.85167e-05
4.19428e-05
4.45531e-05
4.41151e-05
3.57432e-05
1.63523e-05
5.44272e-06
8.05209e-07
7.22712e-09
3.35865e-06
6.44107e-06
1.11607e-05
1.94187e-05
3.06995e-05
3.45907e-05
3.83741e-05
4.2041e-05
4.55882e-05
4.90473e-05
5.21774e-05
3.88305e-05
3.14061e-05
2.86595e-05
2.85983e-05
3.0137e-05
3.26823e-05
3.54969e-05
3.65514e-05
3.58962e-05
3.49573e-05
3.39467e-05
3.30026e-05
3.24149e-05
3.26957e-05
3.43269e-05
3.69178e-05
4.01016e-05
4.31205e-05
4.32373e-05
3.52852e-05
1.63134e-05
5.4477e-06
8.43225e-07
8.22357e-09
3.13344e-06
6.56621e-06
1.15048e-05
1.93014e-05
2.95534e-05
3.40684e-05
3.78448e-05
4.15079e-05
4.50588e-05
4.52704e-05
3.72516e-05
3.20428e-05
3.00072e-05
3.01561e-05
3.17207e-05
3.41158e-05
3.66555e-05
3.84791e-05
3.88237e-05
3.81819e-05
3.72514e-05
3.58794e-05
3.399e-05
3.21387e-05
3.1266e-05
3.21188e-05
3.48093e-05
3.85543e-05
4.17717e-05
4.21831e-05
3.49414e-05
1.64736e-05
5.45947e-06
8.71955e-07
1.01705e-08
2.95835e-06
6.86657e-06
1.25414e-05
2.06632e-05
3.00854e-05
3.41328e-05
3.78953e-05
4.1554e-05
4.10435e-05
3.63545e-05
3.30858e-05
3.17728e-05
3.20361e-05
3.34421e-05
3.553e-05
3.8282e-05
4.09283e-05
4.18864e-05
4.19698e-05
4.17251e-05
4.03542e-05
3.82185e-05
3.54873e-05
3.2995e-05
3.16507e-05
3.15633e-05
3.33157e-05
3.68019e-05
4.04348e-05
4.16271e-05
3.49515e-05
1.65196e-05
5.44206e-06
8.7785e-07
1.30025e-08
3.0065e-06
7.57159e-06
1.47855e-05
2.45524e-05
3.1437e-05
3.52331e-05
3.8956e-05
3.86345e-05
3.65595e-05
3.4823e-05
3.40322e-05
3.42348e-05
3.52902e-05
3.75601e-05
4.08265e-05
4.32001e-05
4.43563e-05
4.55185e-05
4.5934e-05
4.42857e-05
4.10477e-05
3.70056e-05
3.37717e-05
3.24809e-05
3.28205e-05
3.38402e-05
3.48693e-05
3.67705e-05
3.97762e-05
4.12859e-05
3.52315e-05
1.6781e-05
5.44795e-06
8.7299e-07
1.56007e-08
3.17955e-06
8.45192e-06
1.67966e-05
2.6529e-05
3.29607e-05
3.67225e-05
3.92838e-05
3.87379e-05
3.75669e-05
3.67718e-05
3.67787e-05
3.8217e-05
4.08247e-05
4.28613e-05
4.43166e-05
4.63737e-05
4.87069e-05
4.98033e-05
4.82569e-05
4.4352e-05
3.96449e-05
3.56925e-05
3.34298e-05
3.26237e-05
3.28839e-05
3.43399e-05
3.6512e-05
3.87823e-05
4.09276e-05
4.15993e-05
3.52353e-05
1.68954e-05
5.46564e-06
8.46582e-07
1.75425e-08
3.21899e-06
8.68948e-06
1.79285e-05
2.89084e-05
3.44747e-05
3.82645e-05
4.19229e-05
4.14276e-05
4.06724e-05
4.09089e-05
4.2408e-05
4.36203e-05
4.42942e-05
4.5903e-05
4.86474e-05
5.16665e-05
5.32716e-05
5.21341e-05
4.83334e-05
4.30473e-05
3.82822e-05
3.51798e-05
3.34794e-05
3.27478e-05
3.28376e-05
3.41071e-05
3.65136e-05
3.93421e-05
4.16222e-05
4.1588e-05
3.45188e-05
1.67152e-05
5.48042e-06
8.11716e-07
1.86716e-08
3.20548e-06
8.59424e-06
1.82321e-05
3.0737e-05
3.61258e-05
4.00041e-05
4.38344e-05
4.76099e-05
4.75628e-05
4.76235e-05
4.77527e-05
4.82532e-05
4.96788e-05
5.17706e-05
5.42276e-05
5.61312e-05
5.60152e-05
5.29928e-05
4.76641e-05
4.18306e-05
3.72791e-05
3.45021e-05
3.32394e-05
3.2921e-05
3.32963e-05
3.44934e-05
3.66185e-05
3.95483e-05
4.20156e-05
4.17964e-05
3.47438e-05
1.66077e-05
5.48175e-06
7.86588e-07
1.90838e-08
3.1187e-06
8.17833e-06
1.7478e-05
3.08751e-05
3.7561e-05
4.15279e-05
4.54529e-05
4.93398e-05
5.31716e-05
5.65827e-05
5.63911e-05
5.68087e-05
5.76682e-05
5.88252e-05
5.9946e-05
6.02736e-05
5.8518e-05
5.38901e-05
4.73944e-05
4.12026e-05
3.68771e-05
3.45211e-05
3.33775e-05
3.30487e-05
3.33007e-05
3.41398e-05
3.5902e-05
3.84227e-05
4.13276e-05
4.19895e-05
3.50057e-05
1.65992e-05
5.46322e-06
7.79218e-07
1.91845e-08
3.0008e-06
7.62312e-06
1.60854e-05
2.95417e-05
3.8897e-05
4.29342e-05
4.69206e-05
5.08727e-05
5.47909e-05
5.86627e-05
6.24654e-05
6.61757e-05
6.86656e-05
6.84121e-05
6.77672e-05
6.57356e-05
6.15329e-05
5.50468e-05
4.75634e-05
4.1176e-05
3.71539e-05
3.50258e-05
3.39033e-05
3.29215e-05
3.20287e-05
3.19598e-05
3.35667e-05
3.68634e-05
4.07788e-05
4.1934e-05
3.51117e-05
1.67938e-05
5.56605e-06
7.83342e-07
1.91663e-08
2.90588e-06
7.13446e-06
1.44375e-05
2.68486e-05
4.00279e-05
4.41438e-05
4.81976e-05
5.22018e-05
5.61623e-05
6.00802e-05
6.39498e-05
6.77577e-05
7.14827e-05
7.51007e-05
7.83633e-05
7.39264e-05
6.68536e-05
5.80735e-05
4.94286e-05
4.28069e-05
3.89415e-05
3.68189e-05
3.47753e-05
3.23045e-05
2.98892e-05
2.88616e-05
3.0345e-05
3.44411e-05
3.96002e-05
4.19146e-05
3.60268e-05
1.72954e-05
5.6848e-06
8.04438e-07
1.95356e-08
2.87031e-06
7.02005e-06
1.36855e-05
2.46457e-05
3.98087e-05
4.51294e-05
4.93088e-05
5.34323e-05
5.74949e-05
6.14972e-05
6.54384e-05
6.93146e-05
7.31192e-05
7.68466e-05
8.04972e-05
8.36484e-05
7.46903e-05
6.368e-05
5.37053e-05
4.66377e-05
4.26706e-05
3.98464e-05
3.64653e-05
3.22478e-05
2.82036e-05
2.58288e-05
2.62795e-05
3.00464e-05
3.61432e-05
4.07132e-05
3.71427e-05
1.79415e-05
5.75312e-06
8.47145e-07
2.1199e-08
2.9001e-06
7.50192e-06
1.47706e-05
2.55743e-05
3.99076e-05
4.61373e-05
5.0483e-05
5.47534e-05
5.89575e-05
6.31011e-05
6.71791e-05
7.1169e-05
7.50473e-05
7.8783e-05
8.23353e-05
8.56541e-05
8.10621e-05
6.95495e-05
5.87922e-05
5.171e-05
4.75157e-05
4.37902e-05
3.91487e-05
3.34413e-05
2.77275e-05
2.36411e-05
2.24801e-05
2.50358e-05
3.165e-05
3.85252e-05
3.75678e-05
1.86021e-05
5.83964e-06
9.04459e-07
2.44271e-08
2.98424e-06
8.37165e-06
1.76661e-05
3.07115e-05
4.24154e-05
4.72323e-05
5.19208e-05
5.64538e-05
6.08243e-05
6.50331e-05
6.9082e-05
7.29699e-05
7.66864e-05
8.02172e-05
8.35376e-05
8.65405e-05
8.31431e-05
7.21741e-05
6.16917e-05
5.49219e-05
5.06977e-05
4.6226e-05
4.05467e-05
3.38545e-05
2.73905e-05
2.25435e-05
2.0597e-05
2.202e-05
2.72124e-05
3.59119e-05
3.82264e-05
1.92622e-05
5.91555e-06
9.33457e-07
2.90114e-08
3.18905e-06
9.7846e-06
2.30651e-05
3.77186e-05
4.28456e-05
4.78547e-05
5.27021e-05
5.73515e-05
6.17947e-05
6.6036e-05
7.00808e-05
7.39347e-05
7.75377e-05
8.08854e-05
8.3946e-05
8.67379e-05
8.44917e-05
7.41461e-05
6.36691e-05
5.64533e-05
5.13037e-05
4.54885e-05
3.84563e-05
3.08345e-05
2.38725e-05
2.01826e-05
1.98953e-05
2.21408e-05
2.73134e-05
3.48531e-05
3.84239e-05
2.0049e-05
5.9622e-06
9.28603e-07
3.29833e-08
3.58447e-06
1.1404e-05
2.77513e-05
3.89067e-05
4.38116e-05
4.86882e-05
5.35777e-05
5.82159e-05
6.26035e-05
6.67587e-05
7.06535e-05
7.4303e-05
7.77581e-05
8.0962e-05
8.38543e-05
8.6352e-05
8.8219e-05
7.79367e-05
6.65194e-05
5.77965e-05
5.07412e-05
4.26987e-05
3.38058e-05
2.5559e-05
2.08519e-05
1.93351e-05
1.96686e-05
2.2157e-05
2.74947e-05
3.4996e-05
3.78525e-05
1.9807e-05
5.89443e-06
9.11173e-07
3.44342e-08
3.91255e-06
1.29032e-05
3.29386e-05
4.01156e-05
4.50319e-05
4.98066e-05
5.44868e-05
5.89552e-05
6.312e-05
6.70235e-05
7.07345e-05
7.42193e-05
7.74345e-05
8.03448e-05
8.28996e-05
8.5033e-05
8.66626e-05
8.13816e-05
6.89824e-05
5.81366e-05
4.83108e-05
3.7341e-05
2.74426e-05
2.1786e-05
1.92944e-05
1.859e-05
1.96722e-05
2.26799e-05
2.82006e-05
3.55736e-05
3.82148e-05
1.97719e-05
5.88968e-06
9.12995e-07
3.43982e-08
4.1665e-06
1.40875e-05
3.55699e-05
4.08764e-05
4.59342e-05
5.07419e-05
5.51638e-05
5.93321e-05
6.32549e-05
6.69343e-05
7.03554e-05
7.35155e-05
7.63947e-05
7.89557e-05
8.11453e-05
8.28944e-05
8.41166e-05
8.21481e-05
6.86878e-05
5.51601e-05
4.14186e-05
3.02162e-05
2.3394e-05
1.96545e-05
1.81229e-05
1.82303e-05
1.97553e-05
2.3079e-05
2.85866e-05
3.5403e-05
3.74806e-05
1.94107e-05
5.82317e-06
9.2101e-07
3.32906e-08