/*--------------------------------*- C++ -*----------------------------------*\
| =========                 |                                                 |
| \\      /  F ield         | OpenFOAM: The Open Source CFD Toolbox           |
|  \\    /   O peration     | Version:  v1906                                 |
|   \\  /    A nd           | Web:      www.OpenFOAM.com                      |
|    \\/     M anipulation  |                                                 |
\*---------------------------------------------------------------------------*/
FoamFile
{
    version     2.0;
    format      ascii;
    class       volScalarField;
    location    "950";
    object      omega;
}
// * * * * * * * * * * * * * * * * * * * * * * * * * * * * * * * * * * * * * //

dimensions      [0 0 -1 0 0 0 0];


internalField   nonuniform List<scalar> 
78750
(
358.129
13.6087
13.5358
13.512
13.5121
13.5201
13.5287
13.5363
13.5425
13.5476
13.5518
13.5553
13.558
13.5603
13.5622
13.564
13.5657
13.5677
13.5695
13.5714
13.5734
13.5754
13.5773
13.5788
13.5797
13.58
13.5798
13.5794
13.5764
13.5659
13.5392
13.4801
13.4055
13.28
338.615
525.808
4.27797
4.21682
4.19047
4.17594
4.1656
4.157
4.14922
4.14193
4.13539
4.1297
4.12491
4.12104
4.11791
4.11558
4.11384
4.11291
4.11334
4.11522
4.12041
4.13094
4.14818
4.1721
4.20104
4.23207
4.26422
4.29936
4.34114
4.39816
4.46244
4.53257
4.57742
4.55631
4.43902
503.19
525.888
4.36128
4.26912
4.20998
4.1749
4.15341
4.14104
4.13442
4.13122
4.12969
4.12885
4.12876
4.12901
4.12926
4.12927
4.12887
4.12787
4.12622
4.124
4.12139
4.11896
4.11746
4.11823
4.12392
4.13601
4.15617
4.18457
4.22288
4.27614
4.37442
4.5216
4.64773
4.67074
4.56183
503.687
525.928
4.41922
4.32157
4.25071
4.2008
4.16999
4.15249
4.14441
4.14312
4.1458
4.15041
4.15494
4.1586
4.16075
4.161
4.15967
4.15645
4.15143
4.14464
4.13642
4.12855
4.12388
4.126
4.13637
4.15604
4.18862
4.24285
4.34458
4.51537
4.73312
4.91468
4.99294
4.94109
4.7514
503.917
525.946
4.44836
4.35095
4.27589
4.22146
4.18817
4.17639
4.17985
4.19563
4.21631
4.23574
4.2512
4.26089
4.26376
4.26023
4.25105
4.2375
4.22021
4.19867
4.17725
4.16842
4.1763
4.20857
4.27866
4.40091
4.55973
4.7477
4.9553
5.1394
5.2756
5.31931
5.27631
5.14496
4.90368
504
525.967
4.47975
4.38511
4.30959
4.25505
4.22502
4.2225
4.24451
4.28433
4.32922
4.36633
4.39345
4.41024
4.4158
4.41429
4.41223
4.42498
4.46579
4.5372
4.63243
4.74129
4.86122
4.99039
5.12924
5.27952
5.43027
5.54416
5.63222
5.66277
5.65571
5.58728
5.46267
5.28335
4.99126
503.975
525.967
4.49904
4.41407
4.34321
4.29254
4.27528
4.29669
4.35438
4.4344
4.51367
4.58143
4.64276
4.70292
4.76665
4.83727
4.91459
5.00071
5.09436
5.19182
5.29126
5.39522
5.51153
5.63654
5.75067
5.84254
5.91831
5.95115
5.95283
5.92399
5.85611
5.75039
5.60215
5.39183
5.05096
504.038
525.968
4.51596
4.44308
4.38142
4.34181
4.34267
4.39447
4.48883
4.6005
4.70438
4.7997
4.90027
5.00612
5.10589
5.19989
5.28992
5.37726
5.46224
5.55047
5.64722
5.75606
5.8648
5.96193
6.04933
6.10904
6.14608
6.15804
6.15199
6.11313
6.03761
5.92204
5.75726
5.52223
5.14601
505.077
525.969
4.53044
4.46988
4.41958
4.39353
4.41501
4.49134
4.60425
4.71828
4.82253
4.93104
5.04873
5.16282
5.26485
5.35435
5.43319
5.50863
5.58597
5.67021
5.76917
5.87571
5.98134
6.08798
6.17804
6.25019
6.30413
6.33406
6.33519
6.30739
6.23376
6.11083
5.94592
5.71034
5.31564
506.311
525.972
4.54588
4.49676
4.45874
4.44789
4.48512
4.569
4.67569
4.77339
4.86602
4.96567
5.07339
5.18059
5.27426
5.35304
5.42645
5.49809
5.57211
5.6592
5.76156
5.87569
6.00623
6.139
6.25916
6.36196
6.43955
6.48392
6.48891
6.45696
6.3777
6.25499
6.08831
5.84454
5.43504
507.038
525.967
4.56285
4.52704
4.50038
4.50018
4.54183
4.61852
4.70962
4.79261
4.87468
4.96462
5.06135
5.15979
5.24628
5.31887
5.38335
5.44647
5.51885
5.6142
5.73164
5.87042
6.03412
6.20132
6.35377
6.48371
6.58229
6.64279
6.65611
6.6185
6.52472
6.39255
6.21425
5.95426
5.52612
507.538
525.942
4.57074
4.55404
4.53929
4.54321
4.57804
4.63801
4.71108
4.78268
4.85357
4.93037
5.01301
5.09946
5.18164
5.25733
5.33137
5.40732
5.49933
5.62182
5.76781
5.93875
6.13061
6.31904
6.48755
6.6306
6.73615
6.78866
6.79034
6.73741
6.63731
6.50815
6.33726
6.08491
5.64256
508.19
525.906
4.5702
4.57314
4.56912
4.57368
4.59656
4.63704
4.69126
4.75278
4.81807
4.8911
4.97292
5.06125
5.1499
5.2363
5.32467
5.41896
5.53631
5.68947
5.86359
6.04895
6.24751
6.44015
6.61215
6.74895
6.84186
6.87708
6.87144
6.81536
6.73284
6.61757
6.45762
6.21046
5.751
508.677
525.869
4.56106
4.58427
4.58976
4.59479
4.60775
4.63308
4.67437
4.72978
4.79353
4.86747
4.95327
5.04806
5.14565
5.24328
5.34439
5.45735
5.59393
5.75802
5.93725
6.12901
6.33785
6.54368
6.72078
6.85915
6.95027
6.98324
6.97297
6.92641
6.85629
6.74897
6.59397
6.34651
5.86943
509.027
525.83
4.54564
4.58598
4.60152
4.60872
4.61605
4.63169
4.66359
4.71426
4.77727
4.85284
4.94306
5.04327
5.14746
5.2532
5.36288
5.48591
5.63473
5.80891
5.99876
6.20393
6.42339
6.63287
6.80923
6.94262
7.02616
7.05377
7.04003
7.00796
6.9535
6.86148
6.72215
6.4898
6.0083
509.495
525.791
4.52536
4.58168
4.60627
4.61727
4.62356
4.63506
4.66228
4.71041
4.77371
4.85148
4.94555
5.04941
5.15884
5.27398
5.39643
5.53662
5.70427
5.89511
6.09974
6.31134
6.5265
6.72477
6.88669
7.00442
7.07579
7.09856
7.09659
7.0886
7.05676
6.98275
6.85727
6.63231
6.13678
509.791
525.759
4.50411
4.5722
4.60545
4.62076
4.62795
4.6387
4.66588
4.71459
4.77944
4.86173
4.96311
5.07734
5.19784
5.32492
5.46369
5.62241
5.80337
6.00351
6.21155
6.41665
6.61722
6.80036
6.94858
7.05301
7.11396
7.14509
7.1646
7.1815
7.17545
7.11881
7.00234
6.77833
6.2739
510.044
525.733
4.48453
4.56078
4.60011
4.62042
4.63086
4.64508
4.67785
4.7328
4.80595
4.89707
5.00563
5.12534
5.25242
5.38921
5.54038
5.70963
5.89848
6.10329
6.31034
6.50732
6.68707
6.84584
6.9733
7.06077
7.11805
7.15878
7.20632
7.26291
7.2904
7.25725
7.15165
6.93716
6.44126
510.37
525.711
4.46595
4.54794
4.59219
4.61707
4.63459
4.65826
4.70153
4.76536
4.84626
4.94453
5.0584
5.18383
5.31985
5.46877
5.63391
5.81806
6.02198
6.23058
6.43086
6.61034
6.76298
6.89006
6.98784
7.06006
7.11843
7.18333
7.26639
7.36153
7.41673
7.39221
7.2848
7.06548
6.56829
510.533
525.695
4.44998
4.53591
4.58538
4.61818
4.64449
4.6813
4.73837
4.81475
4.90772
5.01732
5.1425
5.28183
5.43543
5.605
5.79209
5.99585
6.2036
6.40032
6.57485
6.71769
6.82868
6.91509
6.98588
7.05607
7.1442
7.26949
7.40935
7.51686
7.55899
7.52296
7.40191
7.16105
6.62584
510.53
525.69
4.43985
4.52891
4.58514
4.62404
4.66434
4.71626
4.78771
4.87861
4.98856
5.11855
5.2677
5.43371
5.61468
5.80862
6.01196
6.21433
6.39934
6.55704
6.68286
6.77678
6.85065
6.92665
7.03214
7.18639
7.35585
7.50969
7.62692
7.69657
7.70471
7.64771
7.51111
7.24784
6.67065
510.101
525.696
4.44113
4.53029
4.58774
4.63541
4.68984
4.7624
4.85796
4.97668
5.11892
5.28332
5.46488
5.65747
5.85609
6.05591
6.24646
6.41508
6.55464
6.66477
6.75129
6.82762
6.92175
7.0667
7.2353
7.39366
7.53695
7.6634
7.76492
7.82286
7.82538
7.76348
7.62216
7.33924
6.7114
509.446
525.709
4.44565
4.53697
4.60656
4.66945
4.74282
4.83848
4.96069
5.10942
5.28194
5.47116
5.66803
5.86526
6.05708
6.23322
6.38461
6.50609
6.59932
6.67319
6.74162
6.82848
6.965
7.13481
7.297
7.44847
7.5974
7.74394
7.86289
7.93501
7.94925
7.89918
7.76473
7.47714
6.81463
509.292
525.714
4.44914
4.54373
4.62274
4.70103
4.79528
4.91495
5.06114
5.23053
5.4164
5.60978
5.80286
5.98758
6.15623
6.30196
6.42054
6.51251
6.58489
6.64873
6.71991
6.83061
6.99783
7.18188
7.34752
7.49281
7.63014
7.76812
7.90304
8.01597
8.05694
8.0319
7.91819
7.64641
6.9779
509.392
525.713
4.45628
4.56036
4.65219
4.74568
4.85458
4.98642
5.14212
5.31812
5.50718
5.69919
5.88428
6.05529
6.20646
6.33417
6.43764
6.52019
6.59179
6.66494
6.76859
6.92503
7.12688
7.31776
7.46024
7.55844
7.64618
7.76069
7.90357
8.04112
8.14665
8.15621
8.07176
7.82323
7.16277
509.458
525.695
4.4555
4.57289
4.67886
4.78324
4.90083
5.03984
5.2005
5.37674
5.56056
5.74313
5.91667
6.07555
6.21607
6.33632
6.43664
6.52016
6.59836
6.69064
6.8179
6.9866
7.18498
7.38088
7.52422
7.60184
7.62995
7.67675
7.79233
7.99024
8.17762
8.26561
8.23384
8.02992
7.41662
510.088
525.658
4.43627
4.56694
4.67796
4.78922
4.9093
5.04467
5.19879
5.37236
5.55446
5.73525
5.90664
6.06302
6.20077
6.31819
6.41689
6.50293
6.58091
6.66239
6.76838
6.91386
7.08995
7.27775
7.45765
7.57334
7.59387
7.55225
7.5419
7.7217
8.05406
8.30387
8.36803
8.26707
7.8553
512.351
525.6
4.39741
4.54618
4.67373
4.78889
4.90877
5.04089
5.18633
5.34375
5.50649
5.66781
5.82269
5.9671
6.09837
6.21534
6.31851
6.41026
6.49458
6.57777
6.66669
6.76602
6.87759
6.98658
7.07394
7.14123
7.20844
7.29154
7.41107
7.58834
7.93793
8.27668
8.39466
8.31722
7.98154
514.34
525.56
4.35732
4.51051
4.64592
4.76942
4.88783
5.01077
5.1453
5.29108
5.44553
5.59988
5.74729
5.88478
6.01027
6.12294
6.22298
6.31128
6.38884
6.45536
6.51096
6.55554
6.5988
6.65364
6.73075
6.8583
7.04582
7.28036
7.53678
7.88603
8.19008
8.43766
8.46447
8.32457
7.93988
514.289
525.556
4.3606
4.51501
4.6516
4.77711
4.89797
5.02136
5.14994
5.27836
5.40738
5.53319
5.65171
5.76045
5.8588
5.9459
6.02124
6.08656
6.14547
6.20574
6.2887
6.43465
6.69761
7.04956
7.41934
7.77914
8.09441
8.36506
8.58933
8.68622
8.71811
8.66213
8.50641
8.22303
7.61329
512.408
525.578
4.38468
4.55333
4.70069
4.82933
4.94581
5.05882
5.17475
5.29696
5.42019
5.54039
5.65469
5.76101
5.85844
5.9527
6.04732
6.17682
6.37051
6.62382
6.90629
7.188
7.43951
7.64069
7.84804
8.07251
8.31341
8.52001
8.65096
8.7199
8.71792
8.64588
8.48178
8.16079
7.41914
510.386
525.618
4.4228
4.59142
4.7412
4.8739
4.99661
5.1166
5.23764
5.35966
5.48074
5.5999
5.71849
5.84071
5.97219
6.11749
6.28382
6.45918
6.64003
6.82328
6.98609
7.12614
7.28105
7.50116
7.76465
8.05108
8.32141
8.55368
8.72436
8.81032
8.81041
8.7174
8.52146
8.15033
7.40052
510.322
525.637
4.45642
4.63423
4.78815
4.92105
5.04111
5.1561
5.2706
5.38679
5.50566
5.62772
5.75323
5.88217
6.01355
6.14644
6.28037
6.4184
6.539
6.63185
6.71578
6.85183
7.08276
7.37227
7.6922
8.01493
8.31015
8.55595
8.73746
8.83711
8.8499
8.77639
8.6039
8.25794
7.53809
511.107
525.636
4.47211
4.65795
4.81449
4.94927
5.07385
5.19662
5.32009
5.44287
5.56317
5.68043
5.795
5.90751
6.0219
6.1331
6.23449
6.32899
6.44227
6.62115
6.84639
7.10056
7.3804
7.67585
7.98128
8.26613
8.5115
8.70621
8.84006
8.90321
8.89259
8.80106
8.61226
8.26088
7.54364
511.386
525.66
4.50271
4.70033
4.8647
5.00331
5.1277
5.24417
5.35637
5.46898
5.58611
5.7076
5.83265
5.96802
6.11318
6.26831
6.43711
6.61157
6.80339
6.99097
7.20241
7.46185
7.75151
8.04946
8.32399
8.56031
8.74756
8.87955
8.95322
8.96747
8.92198
8.80128
8.58724
8.18696
7.38206
510.843
525.739
4.58455
4.79422
4.96428
5.10762
5.24274
5.38167
5.52969
5.68662
5.84845
6.00782
6.15825
6.28727
6.39418
6.48712
6.57102
6.65429
6.78875
6.96655
7.19075
7.45921
7.75764
8.05733
8.33986
8.57943
8.76674
8.89721
8.97278
8.98312
8.92605
8.8026
8.57739
8.15175
7.31805
510.279
525.825
4.64876
4.85755
5.04378
5.21449
5.383
5.55272
5.71773
5.86773
5.99348
6.08886
6.15603
6.17924
6.12956
6.07201
6.06919
6.12659
6.24865
6.4198
6.6571
6.96075
7.3346
7.71627
8.10764
8.43462
8.69543
8.87867
8.98084
9.00764
8.98507
8.88179
8.65517
8.19203
7.3473
510.448
525.84
4.70226
4.93863
5.14281
5.32281
5.49074
5.64606
5.78203
5.89446
5.98675
6.0292
6.00743
5.88788
5.82668
5.82729
5.90811
6.01081
6.09201
6.16517
6.29601
6.52187
6.845
7.24776
7.64382
8.04945
8.40337
8.68457
8.88222
8.98321
8.99409
8.92372
8.76046
8.44737
7.72812
511.938
525.755
4.67795
4.93036
5.13747
5.31878
5.48465
5.63317
5.75845
5.85339
5.90487
5.90059
5.83904
5.7543
5.72665
5.78522
5.89531
6.00261
6.05049
6.09631
6.23141
6.46907
6.81251
7.20469
7.59864
7.97872
8.3204
8.59161
8.79169
8.91984
8.96459
8.91863
8.77329
8.48532
7.90076
513.285
525.628
4.58152
4.87727
5.11068
5.29799
5.45736
5.59622
5.71072
5.7958
5.84445
5.84161
5.78722
5.7084
5.66859
5.67874
5.72734
5.72595
5.70662
5.7688
6.02438
6.39942
6.80564
7.21712
7.61446
7.98242
8.3081
8.58043
8.78132
8.90396
8.93315
8.89068
8.76159
8.48887
7.91297
513.432
525.543
4.43146
4.72078
4.98136
5.19287
5.3547
5.48147
5.58194
5.65803
5.70816
5.72268
5.70984
5.66668
5.62576
5.60997
5.59994
5.58263
5.60443
5.74021
6.01732
6.43165
6.90114
7.35474
7.7622
8.11765
8.41762
8.65409
8.81879
8.90887
8.9277
8.86866
8.72448
8.44941
7.8784
513.389
525.506
4.29357
4.50034
4.72973
4.9625
5.17177
5.33784
5.46369
5.55938
5.62953
5.67272
5.68236
5.6658
5.63644
5.60577
5.57796
5.56043
5.57897
5.70414
5.98759
6.42657
6.91463
7.37464
7.78248
8.13567
8.43353
8.6702
8.83489
8.91996
8.92763
8.86196
8.71443
8.42899
7.8212
512.933
525.521
4.23813
4.3479
4.48992
4.66235
4.84419
5.01007
5.14636
5.25812
5.34892
5.42016
5.47021
5.51504
5.51577
5.49276
5.47581
5.49054
5.59676
5.84382
6.22593
6.67326
7.11875
7.53048
7.89804
8.21809
8.48749
8.69976
8.84727
8.92376
8.9281
8.85935
8.70769
8.42241
7.80728
512.529
525.555
4.36574
4.50586
4.62766
4.76416
4.91066
5.04557
5.15487
5.24489
5.31052
5.35099
5.36603
5.36376
5.35601
5.37027
5.45208
5.62092
5.8907
6.23872
6.61363
6.97908
7.32456
7.65281
7.96286
8.24831
8.49975
8.70549
8.85158
8.92676
8.92814
8.85846
8.7085
8.41881
7.81316
512.514
525.59
4.54101
4.74765
4.86617
4.94961
5.02081
5.08324
5.1364
5.16538
5.18347
5.19612
5.21455
5.25512
5.33878
5.48465
5.68397
5.9098
6.16568
6.4566
6.77225
7.10008
7.42341
7.73308
8.02202
8.2856
8.51902
8.71346
8.85513
8.92909
8.92981
8.85888
8.70912
8.42923
7.84577
512.633
525.595
4.52082
4.71525
4.82053
4.88642
4.93625
4.97712
5.01466
5.06687
5.13696
5.22923
5.34604
5.48884
5.66158
5.86071
6.07535
6.30441
6.55863
6.83449
7.11796
7.39706
7.66455
7.92006
8.15868
8.37783
8.57375
8.73951
8.86407
8.93179
8.93088
8.85987
8.71031
8.43234
7.8561
512.735
525.552
4.36451
4.51228
4.63322
4.75404
4.88126
5.01788
5.16493
5.32178
5.486
5.64943
5.81108
5.97805
6.15548
6.34445
6.54347
6.75477
6.98236
7.22123
7.46163
7.69696
7.92498
8.14503
8.35178
8.54046
8.70409
8.83396
8.92068
8.95574
8.93528
8.84497
8.68315
8.39669
7.81328
512.59
525.531
4.36967
4.57379
4.78177
4.99306
5.197
5.38207
5.54598
5.69479
5.84039
5.99002
6.14529
6.31011
6.4865
6.67224
6.86973
7.0843
7.30915
7.53122
7.74442
7.94837
8.14569
8.33596
8.51317
8.67166
8.806
8.90908
8.97212
8.98484
8.94519
8.83819
8.65948
8.34855
7.72831
511.944
525.541
4.50893
4.80617
5.06424
5.28216
5.46619
5.62729
5.77817
5.92934
6.08395
6.24087
6.39939
6.55893
6.72361
6.89758
7.08365
7.28316
7.48785
7.68966
7.88669
8.07968
8.27021
8.45246
8.61967
8.76511
8.88424
8.96807
9.00958
9.00355
8.94752
8.83256
8.63839
8.30442
7.64321
511.294
525.544
4.54195
4.85364
5.11326
5.32736
5.50478
5.66439
5.82151
5.97986
6.13847
6.29704
6.45535
6.61301
6.76978
6.93288
7.11594
7.31792
7.52078
7.71938
7.91659
8.11539
8.31221
8.50155
8.67645
8.82801
8.94528
9.02128
9.05065
9.03133
8.95856
8.83003
8.63001
8.28328
7.61156
511.185
525.545
4.54269
4.85406
5.1141
5.32866
5.50384
5.66289
5.82162
5.98066
6.13952
6.29804
6.45591
6.6125
6.76704
6.92965
7.11456
7.31672
7.51863
7.71635
7.91412
8.11472
8.31298
8.50388
8.68004
8.83258
8.95357
9.03154
9.0585
9.03825
8.96421
8.8325
8.62911
8.27478
7.60201
511.169
525.542
4.51865
4.81961
5.07467
5.28429
5.45718
5.61661
5.77527
5.93236
6.08763
6.24092
6.39204
6.54067
6.69079
6.85975
7.05626
7.25966
7.45994
7.65979
7.86476
8.07298
8.28024
8.48156
8.66965
8.83385
8.96106
9.04373
9.07316
9.05225
8.97564
8.84081
8.63042
8.26924
7.59718
511.311
525.536
4.46109
4.73362
4.97625
5.18195
5.35524
5.51585
5.67455
5.83068
5.98409
6.1348
6.28283
6.42813
6.58852
6.78165
6.98805
7.19503
7.40003
7.60538
7.81331
8.02234
8.23442
8.44437
8.64137
8.81371
8.95068
9.04155
9.07571
9.05636
8.98009
8.8453
8.63419
8.26994
7.60731
511.614
525.534
4.41259
4.65692
4.88495
5.08887
5.26404
5.42602
5.58651
5.74474
5.89993
6.05197
6.20364
6.36887
6.56028
6.76422
6.97113
7.17621
7.38033
7.58595
7.79658
8.01184
8.2287
8.44065
8.63848
8.81133
8.94744
9.03692
9.06998
9.05005
8.9721
8.8355
8.62441
8.2701
7.63392
512.008
525.539
4.40573
4.64318
4.86327
5.06114
5.2326
5.39254
5.5518
5.70961
5.86602
6.02151
6.18474
6.36738
6.56455
6.7681
6.97276
7.17664
7.38034
7.58628
7.79813
8.01633
8.23578
8.44908
8.64644
8.81592
8.94983
9.03753
9.06866
9.04435
8.96093
8.81875
8.6037
8.24839
7.63639
512.284
525.548
4.41871
4.6579
4.87299
5.06408
5.23288
5.39242
5.55144
5.70874
5.86658
6.0344
6.21901
6.41575
6.61858
6.8229
7.02604
7.22872
7.43234
7.64096
7.85801
8.08214
8.30402
8.51134
8.69469
8.84841
8.96581
9.04075
9.06595
9.03324
8.94223
8.7965
8.57971
8.22447
7.61637
512.404
525.56
4.45863
4.71295
4.92814
5.10989
5.27243
5.43019
5.58809
5.74957
5.92114
6.10478
6.29785
6.49659
6.69781
6.89905
7.09895
7.29834
7.50074
7.70905
7.92428
8.13632
8.34006
8.53174
8.7065
8.85572
8.967
9.03161
9.03781
8.99492
8.90078
8.75468
8.53727
8.18158
7.57869
512.457
525.572
4.50297
4.77425
4.99278
5.17305
5.33475
5.49226
5.65128
5.81631
5.99133
6.17587
6.36787
6.5642
6.7609
6.95645
7.15342
7.35372
7.5577
7.76397
7.96917
8.17419
8.37831
8.57505
8.75174
8.89262
8.98693
9.02906
9.02081
8.967
8.8708
8.72211
8.50086
8.13861
7.52368
512.374
525.581
4.54051
4.82931
5.05521
5.23603
5.39815
5.55787
5.71867
5.88479
6.06066
6.24518
6.43443
6.62578
6.81997
7.01679
7.21443
7.41191
7.61055
7.81004
8.01449
8.22478
8.43593
8.63492
8.80468
8.9305
9.00378
9.02141
8.99411
8.93252
8.8346
8.68662
8.46604
8.10277
7.47919
512.257
525.587
4.56811
4.87503
5.11424
5.30146
5.46795
5.63295
5.79905
5.9665
6.1385
6.31701
6.50086
6.68946
6.88054
7.07125
7.26093
7.4511
7.64496
7.84476
8.05473
8.27457
8.49457
8.69614
8.85833
8.96563
9.00882
9.00005
8.95855
8.89781
8.80327
8.661
8.44796
8.09647
7.4716
512.156
525.59
4.5798
4.90185
5.15759
5.35687
5.53059
5.70107
5.87314
6.04664
6.2205
6.39523
6.57356
6.75558
6.93922
7.12354
7.30813
7.49442
7.68639
7.88942
8.10697
8.33655
8.562
8.75866
8.90076
8.97616
8.99091
8.96033
8.9137
8.85825
8.77417
8.64482
8.445
8.09783
7.47432
512.21
525.591
4.58092
4.91292
5.18818
5.40484
5.58785
5.76278
5.93906
6.11719
6.29693
6.47741
6.6573
6.83524
7.01239
7.19075
7.37035
7.55256
7.74246
7.94737
8.16875
8.4003
8.6205
8.79369
8.91217
8.95904
8.94053
8.88928
8.84599
8.80446
8.73823
8.6276
8.44828
8.12647
7.52042
512.381
525.592
4.57634
4.91397
5.20609
5.44258
5.63639
5.81578
5.99614
6.17776
6.36066
6.54463
6.72913
6.91321
7.09548
7.27444
7.4498
7.62702
7.81526
8.0177
8.2331
8.45027
8.64199
8.79528
8.88265
8.8962
8.84825
8.79083
8.76032
8.74089
8.69911
8.61292
8.46034
8.17576
7.59786
512.601
525.594
4.57
4.90904
5.21178
5.46674
5.67231
5.85838
6.04524
6.23314
6.42165
6.61051
6.79944
6.988
7.17553
7.36133
7.54489
7.7234
7.90178
8.08875
8.28252
8.4672
8.63177
8.7458
8.79396
8.77717
8.71772
8.66321
8.65039
8.65963
8.64948
8.59215
8.47005
8.22401
7.68553
512.917
525.602
4.57317
4.91452
5.22248
5.48644
5.70462
5.90134
6.09594
6.29123
6.48725
6.68391
6.88074
7.07645
7.26961
7.45828
7.63996
7.81154
7.9755
8.13706
8.29756
8.45014
8.57151
8.64772
8.66759
8.62815
8.56175
8.51453
8.52116
8.56839
8.59395
8.56622
8.47141
8.25583
7.75687
513.289
525.616
4.60148
4.9522
5.25635
5.51437
5.7383
5.95048
6.16193
6.37088
6.57646
6.77817
6.97554
7.16803
7.35468
7.53422
7.7051
7.86272
8.00705
8.14727
8.28216
8.39692
8.47658
8.51165
8.4948
8.44068
8.37821
8.35171
8.39655
8.47943
8.5395
8.53491
8.45514
8.25832
7.77508
513.438
525.636
4.65673
5.01644
5.30343
5.53591
5.75719
5.97916
6.1992
6.41492
6.62514
6.82938
7.02729
7.21863
7.40119
7.57275
7.73133
7.87671
8.00765
8.12455
8.22394
8.29416
8.32245
8.31128
8.26774
8.21039
8.17794
8.21598
8.32141
8.43648
8.50988
8.51371
8.44197
8.24588
7.77103
513.42
525.655
4.72329
5.09446
5.36621
5.589
5.80189
6.01887
6.24167
6.45814
6.66703
6.8685
7.06084
7.24343
7.41732
7.58105
7.73106
7.86265
7.97159
8.05756
8.11684
8.14118
8.13258
8.09527
8.04203
8.00402
8.02937
8.13639
8.28015
8.41979
8.50338
8.50788
8.42967
8.22519
7.73873
513.225
525.662
4.77098
5.15763
5.42408
5.64477
5.8596
6.07309
6.28679
6.49707
6.69675
6.88642
7.06906
7.24322
7.40643
7.55604
7.68898
7.8014
7.88861
7.94723
7.97387
7.96959
7.93762
7.88663
7.83952
7.84175
7.92225
8.07238
8.25839
8.41359
8.49818
8.49788
8.41675
8.21254
7.73291
512.976
525.663
4.78874
5.18247
5.45454
5.68093
5.90263
6.11959
6.32448
6.51954
6.70689
6.88581
7.05497
7.21335
7.35951
7.49116
7.60517
7.69759
7.76357
7.79835
7.79967
7.77139
7.72217
7.67143
7.65621
7.71491
7.86786
8.06364
8.25862
8.41479
8.49503
8.49077
8.40364
8.19389
7.71765
512.986
525.66
4.78976
5.18344
5.4571
5.68894
5.91292
6.12546
6.32554
6.51316
6.68858
6.85241
7.00472
7.14482
7.27119
7.38158
7.47302
7.54182
7.58356
7.59349
7.57243
7.52941
7.48506
7.4703
7.52195
7.67364
7.86158
8.06882
8.2643
8.41424
8.48709
8.47721
8.38362
8.16885
7.6978
513.01
525.651
4.75828
5.13709
5.41094
5.64552
5.86939
6.07859
6.2723
6.45099
6.61542
6.76608
6.90289
7.02515
7.13148
7.21987
7.28769
7.33191
7.34893
7.33576
7.30147
7.26744
7.26619
7.33238
7.48444
7.6778
7.89442
8.10613
8.28749
8.41746
8.47707
8.4577
8.35316
8.12851
7.65176
512.922
525.638
4.70539
5.06156
5.32818
5.56034
5.78167
5.9875
6.17626
6.3478
6.5024
6.64033
6.76143
6.86505
6.95
7.01461
7.0569
7.07435
7.06644
7.04089
7.02008
7.03987
7.13264
7.30605
7.51315
7.73692
7.95588
8.15476
8.31692
8.42622
8.46522
8.43219
8.31617
8.07817
7.58459
512.763
525.623
4.63724
4.9648
5.22009
5.4471
5.66418
5.86559
6.04875
6.21274
6.35731
6.48234
6.58751
6.67222
6.73563
6.77686
6.79421
6.7899
6.77511
6.77048
6.8129
6.92933
7.10628
7.31256
7.53537
7.76773
7.99019
8.18493
8.33568
8.42793
8.44903
8.40159
8.2727
8.0189
7.49833
512.508
525.604
4.53786
4.82269
5.06102
5.28126
5.49462
5.69332
5.8731
6.03187
6.16864
6.28288
6.37412
6.44197
6.48628
6.50725
6.51074
6.50883
6.52067
6.57925
6.70778
6.87916
7.07573
7.29663
7.53148
7.76826
7.99318
8.18893
8.33685
8.41922
8.43013
8.37106
8.23477
7.97124
7.43675
512.31
525.585
4.41519
4.63706
4.84487
5.05127
5.25799
5.45389
5.63183
5.78816
5.92091
6.02893
6.1114
6.16734
6.20161
6.22309
6.24172
6.26913
6.32613
6.43828
6.58873
6.76847
6.97782
7.21202
7.46205
7.71572
7.95529
8.1612
8.31337
8.39696
8.40562
8.34247
8.20426
7.94128
7.42224
512.364
525.573
4.30679
4.44998
4.59831
4.76642
4.95579
5.14716
5.32092
5.47291
5.60136
5.70722
5.79352
5.86513
5.92751
5.97974
6.02961
6.09362
6.18409
6.32046
6.48988
6.68452
6.90368
7.14387
7.39625
7.6515
7.89324
8.1074
8.27263
8.36585
8.37798
8.31585
8.17669
7.91304
7.41512
512.682
525.577
4.30048
4.42109
4.53014
4.63934
4.75035
4.86868
4.99988
5.13644
5.27189
5.40055
5.51773
5.62067
5.70791
5.78976
5.88249
5.99838
6.14099
6.29905
6.47645
6.67551
6.89616
7.13538
7.38187
7.62007
7.8504
8.05992
8.23206
8.33147
8.3464
8.28261
8.14582
7.89991
7.43493
513.175
525.588
4.32182
4.44163
4.54191
4.64031
4.74192
4.84825
4.95891
5.07202
5.18543
5.29771
5.40828
5.51514
5.61906
5.7275
5.85229
5.99156
6.14531
6.31769
6.50805
6.71368
6.93103
7.15659
7.38554
7.61419
7.83333
8.03175
8.18497
8.28386
8.30281
8.23598
8.10028
7.87044
7.45099
513.67
525.608
4.38962
4.5305
4.63287
4.72234
4.80704
4.89357
4.98572
5.08477
5.18982
5.29849
5.40791
5.5158
5.6315
5.76821
5.92297
6.09205
6.2748
6.46957
6.67395
6.88265
7.09179
7.2988
7.49987
7.69173
7.87225
8.03836
8.17959
8.26576
8.26325
8.18722
8.0417
7.8111
7.40825
513.834
525.629
4.48185
4.65673
4.77737
4.87786
4.967
5.05235
5.13944
5.23164
5.33033
5.43514
5.54467
5.66768
5.81548
5.9815
6.1576
6.33903
6.5246
6.71316
6.90446
7.09709
7.29059
7.48388
7.67279
7.85424
8.02119
8.1572
8.24387
8.27341
8.24183
8.13713
7.97347
7.72544
7.30479
513.745
525.641
4.5512
4.7547
4.89673
5.01758
5.12497
5.22518
5.32334
5.42319
5.52708
5.63598
5.75634
5.89841
6.05945
6.2281
6.39855
6.56958
6.74191
6.91619
7.09319
7.27331
7.4569
7.64268
7.82614
7.99892
8.1475
8.25647
8.31023
8.29761
8.22118
8.08695
7.90097
7.62777
7.16713
513.154
525.641
4.57532
4.80464
4.96465
5.10068
5.22255
5.33575
5.44582
5.55537
5.66626
5.78362
5.91746
6.06813
6.22361
6.37924
6.53549
6.69454
6.8579
7.02645
7.20137
7.38377
7.57241
7.76355
7.94819
8.11246
8.24113
8.32011
8.33962
8.29892
8.19752
8.03671
7.83429
7.54041
7.04845
512.191
525.633
4.56975
4.80904
4.97612
5.11692
5.24712
5.37052
5.4886
5.60477
5.72414
5.85622
6.00239
6.1526
6.30349
6.45573
6.60938
6.76536
6.92828
7.10137
7.28316
7.47157
7.66604
7.86311
8.05054
8.21228
8.33164
8.39359
8.39156
8.32134
8.19002
8.01232
7.79245
7.48307
6.9866
511.601
525.621
4.54537
4.79676
4.97098
5.11304
5.24501
5.37151
5.49535
5.62197
5.75866
5.9053
6.05531
6.20606
6.35525
6.50153
6.64991
6.80672
6.97266
7.14597
7.32819
7.52163
7.72517
7.93126
8.12261
8.28249
8.39513
8.44503
8.42897
8.33961
8.18604
7.98658
7.75201
7.43415
6.94407
511.572
525.612
4.5106
4.76665
4.95868
5.10738
5.24049
5.37035
5.50299
5.64296
5.78865
5.93638
6.08367
6.23246
6.38462
6.53812
6.69331
6.85151
7.01423
7.18662
7.3738
7.57735
7.79241
8.00494
8.19787
8.35126
8.45464
8.49343
8.45581
8.34184
8.16359
7.94639
7.70589
7.38972
6.91661
511.673
525.612
4.50102
4.75956
4.96541
5.13023
5.2717
5.40455
5.53779
5.67525
5.8181
5.96703
6.1218
6.28119
6.44315
6.60555
6.76614
6.92326
7.08307
7.25667
7.44832
7.65455
7.86371
8.06312
8.23859
8.38533
8.4851
8.51341
8.4618
8.31949
8.11917
7.89292
7.65661
7.35206
6.90412
511.839
525.622
4.51592
4.78644
5.00218
5.17023
5.30977
5.44231
5.57886
5.72032
5.86704
6.01884
6.17513
6.33535
6.49868
6.66392
6.82979
6.99304
7.15235
7.31749
7.49972
7.69401
7.88844
8.0728
8.24379
8.39003
8.4881
8.50505
8.42994
8.27456
8.0655
7.83737
7.60598
7.31356
6.89277
512.047
525.641
4.55105
4.83164
5.04728
5.2096
5.34754
5.48185
5.61916
5.76074
5.90772
6.06074
6.21976
6.38429
6.55314
6.72284
6.89061
7.05428
7.21177
7.3716
7.5445
7.72561
7.90516
8.07359
8.23451
8.36596
8.43567
8.43322
8.35186
8.19976
7.99837
7.77642
7.54569
7.25584
6.85909
512.34
525.658
4.57848
4.86525
5.08141
5.24164
5.38063
5.51853
5.65867
5.8029
5.95322
6.1113
6.27826
6.4503
6.62269
6.79288
6.95919
7.12072
7.2774
7.43286
7.5937
7.7574
7.9171
8.06892
8.2009
8.30344
8.35924
8.3508
8.27295
8.12327
7.92056
7.70235
7.47035
7.17753
6.78581
512.585
525.67
4.5905
4.88243
5.10586
5.27064
5.41507
5.5582
5.70182
5.8482
5.99998
6.15956
6.32501
6.49357
6.66389
6.83411
7.00298
7.16817
7.32807
7.47922
7.62583
7.77403
7.91636
8.04503
8.15473
8.2362
8.27425
8.25718
8.17205
8.0219
7.82831
7.61947
7.38735
7.09084
6.69491
512.691
525.676
4.5911
4.88362
5.11168
5.28641
5.43996
5.58882
5.73659
5.88581
6.03696
6.18933
6.34439
6.50462
6.66923
6.83652
7.00446
7.17047
7.3312
7.48214
7.61996
7.7485
7.87134
7.98601
8.08648
8.16108
8.1978
8.17702
8.08509
7.9302
7.73576
7.52624
7.29008
6.98323
6.56919
512.554
525.678
4.58242
4.8745
5.10741
5.29093
5.45352
5.61114
5.76145
5.90663
6.05046
6.19622
6.34438
6.49499
6.64886
6.80564
6.96412
7.12222
7.27695
7.42418
7.55962
7.6814
7.79731
7.9146
8.02601
8.11339
8.15281
8.12047
8.01187
7.84132
7.63743
7.4285
7.2017
6.91203
6.52351
512.615
525.679
4.5692
4.8576
5.08899
5.27987
5.45267
5.61392
5.76484
5.90815
6.04658
6.18313
6.32053
6.46087
6.60533
6.75407
6.90615
7.05953
7.21126
7.35734
7.49373
7.61619
7.73241
7.85394
7.97302
8.06196
8.09082
8.04346
7.92157
7.74325
7.53667
7.3337
7.12631
6.87202
6.52411
513.16
525.685
4.55954
4.8404
5.0634
5.25406
5.43286
5.59795
5.74991
5.89141
6.02578
6.15639
6.28627
6.41791
6.55306
6.69248
6.83583
6.9817
7.12763
7.26997
7.40485
7.52803
7.64423
7.76165
7.87046
7.93978
7.94527
7.88572
7.76342
7.59571
7.40454
7.21993
7.04354
6.83678
6.54577
513.894
525.692
4.55197
4.82324
5.04074
5.23042
5.41121
5.57851
5.73219
5.87443
6.0082
6.13662
6.26269
6.38895
6.51737
6.64916
6.78437
6.92201
7.05998
7.19485
7.32268
7.43917
7.54575
7.6441
7.71857
7.74298
7.71754
7.64005
7.52436
7.38251
7.23303
7.09606
6.96161
6.80431
6.56997
514.562
525.699
4.5466
4.80747
5.02041
5.20908
5.38978
5.55752
5.71243
5.85618
5.99115
6.12004
6.24544
6.36961
6.49427
6.62048
6.74815
6.87621
7.00248
7.1234
7.23473
7.33185
7.41361
7.47442
7.49274
7.47392
7.41727
7.33452
7.23684
7.1404
7.05685
6.97717
6.88176
6.75439
6.55423
514.692
525.701
4.53173
4.78067
4.98635
5.17145
5.35138
5.52024
5.67722
5.8236
5.96141
6.09282
6.21985
6.34417
6.46697
6.58869
6.70871
6.82545
6.93617
7.03685
7.12283
7.18984
7.23323
7.24002
7.21965
7.1775
7.12706
7.08103
7.03747
7.00355
6.97127
6.92212
6.83991
6.71422
6.48282
514.489
525.696
4.50696
4.74031
4.9354
5.11404
5.29085
5.45949
5.61826
5.7675
5.90833
6.04219
6.17045
6.29412
6.41369
6.52887
6.63849
6.74035
6.83132
6.90715
6.9633
6.99448
7.00154
6.99479
6.98813
6.98729
6.98462
6.97493
6.96158
6.95576
6.94724
6.90972
6.82784
6.68683
6.41148
513.565
525.685
4.47539
4.68677
4.86441
5.03154
5.20079
5.36678
5.52543
5.67547
5.81704
5.95092
6.0779
6.19847
6.31259
6.41952
6.51777
6.60521
6.67873
6.73328
6.7727
6.80286
6.83297
6.8669
6.89787
6.919
6.92839
6.93409
6.94378
6.95
6.94614
6.90784
6.82004
6.67651
6.40494
512.562
525.676
4.45752
4.65374
4.80949
4.94903
5.09891
5.26234
5.42025
5.56876
5.70676
5.83603
5.95744
6.07145
6.17775
6.27483
6.35945
6.43428
6.50379
6.57139
6.63915
6.70187
6.75685
6.80419
6.84365
6.87555
6.90354
6.92582
6.94382
6.96205
6.96192
6.91302
6.81491
6.6582
6.37522
512.117
525.669
4.44617
4.63499
4.77892
4.903
5.0305
5.16986
5.32013
5.46649
5.59566
5.7113
5.81851
5.91923
6.01636
6.11372
6.21492
6.31652
6.41492
6.50657
6.58836
6.65849
6.71727
6.76847
6.81593
6.86031
6.90212
6.93842
6.97334
6.99463
6.98239
6.91658
6.80205
6.63281
6.34767
512.069
525.664
4.43198
4.61362
4.75248
4.87316
5.00431
5.15118
5.29783
5.4297
5.54287
5.64781
5.75348
5.86027
5.96776
6.07486
6.18024
6.28251
6.37996
6.47058
6.55243
6.62369
6.68499
6.7416
6.7994
6.85844
6.91502
6.96715
7.00916
7.02455
6.99271
6.90354
6.77427
6.5936
6.31252
512.038
525.659
4.40889
4.57636
4.70709
4.82356
4.95633
5.11084
5.26601
5.40512
5.52104
5.62467
5.72658
5.82846
5.93104
6.03436
6.1376
6.23933
6.33777
6.43056
6.51546
6.59024
6.65531
6.71807
6.78694
6.86098
6.93542
7.00074
7.04839
7.05616
7.00146
6.88736
6.73564
6.53437
6.24694
512.028
525.655
4.38779
4.53972
4.65965
4.77084
4.902
5.05605
5.21522
5.36142
5.48364
5.59008
5.69188
5.79271
5.89438
5.99732
6.10088
6.20364
6.30366
6.39847
6.48591
6.56374
6.63201
6.69998
6.77871
6.86496
6.9506
7.02461
7.0668
7.06413
6.99409
6.85895
6.68876
6.4757
6.19243
512.254
525.656
4.3835
4.52607
4.63051
4.72702
4.84608
4.99277
5.15775
5.32214
5.46378
5.57627
5.67184
5.76217
5.85563
5.95259
6.05244
6.15369