/*--------------------------------*- C++ -*----------------------------------*\
| =========                 |                                                 |
| \\      /  F ield         | OpenFOAM: The Open Source CFD Toolbox           |
|  \\    /   O peration     | Version:  v1906                                 |
|   \\  /    A nd           | Web:      www.OpenFOAM.com                      |
|    \\/     M anipulation  |                                                 |
\*---------------------------------------------------------------------------*/
FoamFile
{
    version     2.0;
    format      ascii;
    class       surfaceScalarField;
    location    "950";
    object      phi;
}
// * * * * * * * * * * * * * * * * * * * * * * * * * * * * * * * * * * * * * //

dimensions      [1 0 -1 0 0 0 0];
oriented        oriented;


internalField   nonuniform List<scalar> 
228225
(
-2.67034e-06
2.73988e-06
-1.47913e-07
-5.56394e-06
3.10682e-06
-2.13335e-07
-7.70289e-06
2.31152e-06
-1.72689e-07
-9.24701e-06
1.64498e-06
-1.01051e-07
-1.04241e-05
1.20309e-06
-2.62641e-08
-1.14039e-05
9.56464e-07
2.30842e-08
-1.22501e-05
7.84814e-07
6.11696e-08
-1.2991e-05
6.54381e-07
8.62343e-08
-1.36339e-05
5.40131e-07
1.02557e-07
-1.41865e-05
4.42884e-07
1.0941e-07
-1.46543e-05
3.59634e-07
1.07881e-07
-1.50408e-05
2.87351e-07
9.8882e-08
-1.53481e-05
2.22894e-07
8.41145e-08
-1.55786e-05
1.64604e-07
6.5682e-08
-1.57388e-05
1.14966e-07
4.49123e-08
-1.58521e-05
9.07962e-08
2.21727e-08
-1.59087e-05
6.28266e-08
-6.46317e-09
-1.5916e-05
4.36098e-08
-3.66308e-08
-1.59255e-05
7.32941e-08
-6.40719e-08
-1.59263e-05
1.02165e-07
-1.01771e-07
-1.59925e-05
1.91138e-07
-1.25369e-07
-1.61367e-05
2.93202e-07
-1.49316e-07
-1.63607e-05
3.94301e-07
-1.70752e-07
-1.66269e-05
4.54111e-07
-1.88285e-07
-1.68617e-05
4.32892e-07
-1.98567e-07
-1.69849e-05
3.28161e-07
-2.05331e-07
-1.68709e-05
9.12538e-08
-2.05599e-07
-1.64103e-05
-2.64699e-07
-1.96247e-07
-1.54352e-05
-7.90889e-07
-1.84634e-07
-1.38687e-05
-1.39428e-06
-1.72641e-07
-1.16356e-05
-2.08126e-06
-1.52282e-07
-8.71537e-06
-2.75609e-06
-1.64655e-07
-5.32909e-06
-3.16525e-06
-2.21953e-07
-1.99635e-06
-3.1164e-06
-2.17201e-07
-1.84724e-06
-1.49151e-07
-7.40676e-07
3.58424e-06
-1.03914e-07
-2.05571e-06
4.6109e-06
-1.89315e-07
-3.18802e-06
3.62592e-06
-1.82448e-07
-3.69466e-06
2.28463e-06
-1.3342e-07
-3.69964e-06
1.2912e-06
-8.35667e-08
-3.37463e-06
6.57333e-07
-2.63309e-08
-2.88277e-06
2.69055e-07
2.34311e-08
-2.25712e-06
-3.22187e-08
6.04658e-08
-1.56704e-06
-2.38989e-07
8.8552e-08
-8.52739e-07
-3.86043e-07
1.14115e-07
-1.41868e-07
-4.91781e-07
1.40038e-07
5.47343e-07
-5.6927e-07
1.669e-07
1.20576e-06
-6.24699e-07
1.8865e-07
1.81629e-06
-6.6273e-07
2.16266e-07
2.36929e-06
-6.84365e-07
2.45763e-07
2.87246e-06
-6.89148e-07
2.76193e-07
3.30463e-06
-6.73253e-07
3.033e-07
3.64229e-06
-6.29846e-07
3.35144e-07
3.89722e-06
-5.55104e-07
3.72773e-07
4.02459e-06
-4.41432e-07
4.15484e-07
4.03409e-06
-2.79867e-07
4.6072e-07
3.88763e-06
-5.85004e-08
4.97335e-07
3.55141e-06
2.15768e-07
5.1392e-07
2.99688e-06
5.06745e-07
5.01135e-07
2.24015e-06
7.08674e-07
4.80243e-07
1.24636e-06
8.74025e-07
4.47173e-07
5.23479e-08
8.79511e-07
4.0492e-07
-1.16493e-06
5.97011e-07
3.54667e-07
-2.34775e-06
6.98167e-08
3.21141e-07
-3.21912e-06
-8.31717e-07
3.07839e-07
-3.59717e-06
-1.99792e-06
2.93773e-07
-3.28298e-06
-3.37198e-06
3.00808e-07
-2.32911e-06
-4.43282e-06
3.12602e-07
-1.01826e-06
-4.65473e-06
2.26257e-07
-2.93479e-06
6.92641e-08
-1.21694e-07
3.81178e-06
-1.06153e-07
-6.81422e-07
5.40054e-06
-2.30223e-07
-1.42036e-06
4.63741e-06
-2.72917e-07
-2.00696e-06
3.13952e-06
-2.68702e-07
-2.25678e-06
1.78879e-06
-2.4822e-07
-2.16522e-06
7.97988e-07
-2.32678e-07
-1.84801e-06
1.85827e-07
-2.34468e-07
-1.39974e-06
-2.44625e-07
-2.36365e-07
-8.92125e-07
-5.12041e-07
-2.35068e-07
-3.45871e-07
-7.06778e-07
-2.26017e-07
2.1879e-07
-8.44764e-07
-2.1218e-07
7.72596e-07
-9.26751e-07
-1.96846e-07
1.30662e-06
-9.78931e-07
-1.80335e-07
1.81423e-06
-1.0104e-06
-1.60474e-07
2.29177e-06
-1.02528e-06
-1.37154e-07
2.72668e-06
-1.01184e-06
-1.12781e-07
3.10874e-06
-9.70702e-07
-8.5233e-08
3.44162e-06
-9.06357e-07
-5.70244e-08
3.73349e-06
-8.20238e-07
-2.74153e-08
3.98716e-06
-6.9958e-07
3.75795e-09
4.20937e-06
-5.38606e-07
3.57408e-08
4.38236e-06
-3.10379e-07
7.80216e-08
4.50262e-06
-3.72793e-08
1.31971e-07
4.5239e-06
3.03133e-07
1.81604e-07
4.41128e-06
6.09291e-07
2.11184e-07
4.10677e-06
9.39865e-07
2.37863e-07
3.60733e-06
1.1307e-06
2.47557e-07
2.8658e-06
1.08144e-06
2.56311e-07
1.98168e-06
6.80573e-07
2.72413e-07
1.12015e-06
-2.77922e-07
3.06774e-07
4.67237e-07
-1.71102e-06
3.65077e-07
8.72509e-08
-3.41416e-06
4.21346e-07
-9.94722e-08
-4.67788e-06
4.30852e-07
-1.16265e-07
-4.97321e-06
3.34239e-07
-3.18765e-06
1.36579e-07
2.7137e-08
3.87013e-06
-8.57708e-08
-2.8541e-07
5.93993e-06
-2.27108e-07
-7.79929e-07
5.4376e-06
-3.05952e-07
-1.27639e-06
3.97463e-06
-3.38968e-07
-1.59601e-06
2.45367e-06
-3.45619e-07
-1.68614e-06
1.24246e-06
-3.5473e-07
-1.55573e-06
4.07842e-07
-3.52817e-07
-1.33355e-06
-1.22671e-07
-3.44498e-07
-1.01336e-06
-5.03569e-07
-3.29033e-07
-6.36431e-07
-7.73016e-07
-3.11041e-07
-2.33191e-07
-9.56065e-07
-2.92291e-07
1.93717e-07
-1.07469e-06
-2.7933e-07
6.20183e-07
-1.14037e-06
-2.65382e-07
1.01766e-06
-1.15995e-06
-2.48271e-07
1.36244e-06
-1.14503e-06
-2.25384e-07
1.64569e-06
-1.09616e-06
-1.99304e-07
1.8666e-06
-1.02025e-06
-1.71756e-07
2.02838e-06
-9.22033e-07
-1.46538e-07
2.10397e-06
-7.83549e-07
-1.12735e-07
2.04685e-06
-5.67824e-07
-7.51282e-08
1.819e-06
-2.75649e-07
-3.56269e-08
1.39686e-06
1.08349e-07
2.89379e-09
8.32418e-07
4.88166e-07
3.84405e-08
1.74241e-07
8.82629e-07
7.81066e-08
-5.42906e-07
1.20621e-06
1.19706e-07
-1.14284e-06
1.37798e-06
1.61329e-07
-1.55901e-06
1.34056e-06
2.05781e-07
-1.70489e-06
9.48644e-07
2.78085e-07
-1.58131e-06
1.76883e-07
3.79471e-07
-1.1362e-06
-1.22021e-06
4.96524e-07
-6.20183e-07
-2.83065e-06
6.03024e-07
-3.08568e-07
-4.37538e-06
6.49128e-07
-1.99491e-07
-5.39548e-06
6.08011e-07
-1.03535e-07
-5.53722e-06
4.67444e-07
-3.49517e-06
2.03957e-07
-2.13935e-08
3.96496e-06
-7.36356e-08
-2.65735e-07
6.40369e-06
-2.19589e-07
-6.56338e-07
6.14094e-06
-3.12924e-07
-1.09841e-06
4.77065e-06
-3.54154e-07
-1.46038e-06
3.17196e-06
-3.56549e-07
-1.6814e-06
1.80197e-06
-3.38738e-07
-1.73126e-06
7.62084e-07
-3.04622e-07
-1.67634e-06
8.71478e-08
-2.64976e-07
-1.53759e-06
-4.29101e-07
-2.1345e-07
-1.33697e-06
-8.04094e-07
-1.6975e-07
-1.12124e-06
-1.03438e-06
-1.37625e-07
-9.07271e-07
-1.17873e-06
-1.10142e-07
-7.171e-07
-1.24277e-06
-8.79749e-08
-5.74335e-07
-1.23159e-06
-7.13411e-08
-4.96487e-07
-1.15845e-06
-6.46635e-08
-5.1362e-07
-1.02469e-06
-5.45862e-08
-6.73598e-07
-8.16765e-07
-4.37805e-08
-1.00562e-06
-5.60087e-07
-3.02328e-08
-1.61628e-06
-1.63697e-07
-9.52046e-09
-2.43546e-06
2.3522e-07
1.57816e-08
-3.37176e-06
6.15113e-07
4.51231e-08
-4.33677e-06
9.94309e-07
7.85795e-08
-5.25544e-06
1.29726e-06
1.09104e-07
-6.00564e-06
1.48202e-06
1.50415e-07
-6.45226e-06
1.45162e-06
2.00853e-07
-6.44587e-06
1.1009e-06
2.70265e-07
-6.05341e-06
5.85949e-07
3.61655e-07
-4.95528e-06
-6.40147e-07
4.90122e-07
-3.50312e-06
-1.8876e-06
6.11669e-07
-2.05293e-06
-3.39307e-06
7.2198e-07
-9.25141e-07
-4.7189e-06
7.59859e-07
-2.66656e-07
-5.75607e-06
7.21693e-07
1.52957e-08
-6.30911e-06
6.31053e-07
9.44936e-08
-6.10892e-06
4.91757e-07
-3.63468e-06
2.34011e-07
4.99469e-08
3.97206e-06
-5.70922e-08
-7.62248e-08
6.72618e-06
-1.96364e-07
-3.5582e-07
6.71629e-06
-2.95788e-07
-7.41139e-07
5.49701e-06
-3.41078e-07
-1.1032e-06
3.86787e-06
-3.33882e-07
-1.37127e-06
2.35069e-06
-2.80688e-07
-1.52847e-06
1.11888e-06
-1.99617e-07
-1.61624e-06
2.91633e-07
-1.16737e-07
-1.65387e-06
-3.42085e-07
-4.94077e-08
-1.7083e-06
-7.58427e-07
8.74881e-09
-1.80887e-06
-9.80425e-07
4.66011e-08
-1.99029e-06
-1.07123e-06
7.3908e-08
-2.27583e-06
-1.04467e-06
8.74256e-08
-2.71125e-06
-8.88983e-07
9.28053e-08
-3.38797e-06
-5.772e-07
9.54672e-08
-4.3832e-06
-1.24832e-07
9.5362e-08
-5.6597e-06
3.57565e-07
1.02166e-07
-7.13689e-06
7.98048e-07
1.19043e-07
-8.71229e-06
1.27839e-06
1.33295e-07
-1.02386e-05
1.61729e-06
1.4421e-07
-1.15929e-05
1.80933e-06
1.60071e-07
-1.26054e-05
1.82098e-06
1.85784e-07
-1.31355e-05
1.58607e-06
2.41272e-07
-1.30642e-05
1.09425e-06
3.16533e-07
-1.24593e-05
4.20262e-07
4.26434e-07
-1.08243e-05
-1.06419e-06
5.30173e-07
-8.69303e-06
-2.1854e-06
6.40135e-07
-6.45221e-06
-3.63627e-06
7.55379e-07
-4.2938e-06
-4.85903e-06
8.13109e-07
-2.60854e-06
-5.88172e-06
8.03477e-07
-1.38858e-06
-6.66803e-06
7.29245e-07
-5.91302e-07
-7.15844e-06
6.05165e-07
-7.95743e-08
-7.29959e-06
4.78925e-07
1.17035e-07
-6.66756e-06
3.62235e-07
-3.70422e-06
1.8657e-07
4.05449e-08
3.9776e-06
-4.60271e-08
-1.58198e-08
6.94894e-06
-1.66336e-07
-1.92365e-07
7.14785e-06
-2.54955e-07
-4.97707e-07
6.08814e-06
-2.85715e-07
-8.44832e-07
4.46769e-06
-2.52607e-07
-1.17885e-06
2.85589e-06
-1.71077e-07
-1.48249e-06
1.4933e-06
-7.06591e-08
-1.74623e-06
5.41152e-07
1.43556e-08
-2.07596e-06
-9.49923e-08
8.27495e-08
-2.52624e-06
-4.33752e-07
1.25703e-07
-3.13718e-06
-5.21033e-07
1.51637e-07
-3.98084e-06
-3.95175e-07
1.67676e-07
-5.12489e-06
-7.77279e-08
1.77177e-07
-6.55776e-06
3.58918e-07
1.85058e-07
-8.22148e-06
8.95096e-07
1.91523e-07
-1.00075e-05
1.47212e-06
1.8917e-07
-1.17544e-05
1.919e-06
1.85555e-07
-1.33506e-05
2.20163e-06
1.92603e-07
-1.46231e-05
2.33587e-06
2.15139e-07
-1.55124e-05
2.25335e-06
2.53258e-07
-1.59388e-05
1.93395e-06
3.01796e-07
-1.57876e-05
1.28158e-06
3.88199e-07
-1.51306e-05
4.50743e-07
4.78282e-07
-1.35206e-05
-1.07072e-06
5.55027e-07
-1.14949e-05
-2.2228e-06
6.17347e-07
-9.40802e-06
-3.80827e-06
6.57131e-07
-7.33161e-06
-4.9423e-06
6.80407e-07
-5.71386e-06
-5.91109e-06
6.5698e-07
-4.41242e-06
-6.74854e-06
5.87965e-07
-3.3198e-06
-7.4397e-06
4.65263e-07
-2.34604e-06
-7.94807e-06
3.062e-07
-1.43466e-06
-8.21211e-06
1.42192e-07
-6.00034e-07
-8.16998e-06
3.57089e-08
-6.28502e-08
-7.22155e-06
1.67525e-08
-3.82424e-06
5.71937e-08
5.39554e-08
3.95437e-06
-3.05863e-08
4.13386e-08
7.09018e-06
-1.28495e-07
-5.92411e-08
7.44917e-06
-2.00607e-07
-2.80909e-07
6.52858e-06
-2.18616e-07
-5.79079e-07
4.941e-06
-1.74959e-07
-9.30922e-07
3.29305e-06
-8.51071e-08
-1.35042e-06
1.89035e-06
2.26789e-08
-1.84868e-06
9.20547e-07
1.19081e-07
-2.58386e-06
4.55086e-07
1.85274e-07
-3.52283e-06
2.76843e-07
2.28537e-07
-4.66198e-06
3.64989e-07
2.53304e-07
-6.02736e-06
7.0317e-07
2.67218e-07
-7.60323e-06
1.22905e-06
2.69301e-07
-9.27322e-06
1.76774e-06
2.61384e-07
-1.08518e-05
2.22013e-06
2.53804e-07
-1.21833e-05
2.54852e-06
2.55209e-07
-1.3235e-05
2.70204e-06
2.68857e-07
-1.403e-05
2.70058e-06
2.96195e-07
-1.45364e-05
2.51024e-06
3.32142e-07
-1.46546e-05
1.99256e-06
3.792e-07
-1.42261e-05
1.07644e-06
4.29275e-07
-1.34323e-05
2.46284e-08
4.63381e-07
-1.20967e-05
-1.35526e-06
4.70766e-07
-1.06103e-05
-2.97864e-06
4.21892e-07
-9.10345e-06
-4.13779e-06
4.08563e-07
-8.15658e-06
-5.1312e-06
3.76419e-07
-7.34819e-06
-6.06889e-06
3.18556e-07
-6.53546e-06
-6.95646e-06
2.32994e-07
-5.65054e-06
-7.74551e-06
1.12391e-07
-4.66807e-06
-8.39831e-06
-2.35404e-08
-3.58469e-06
-8.87829e-06
-1.52865e-07
-2.42933e-06
-9.12042e-06
-2.46723e-07
-1.29207e-06
-9.04234e-06
-2.64379e-07
-3.74416e-07
-7.94388e-06
-1.94621e-07
-4.14322e-06
-5.54243e-08
2.56583e-08
3.94743e-06
-1.8545e-08
-6.34096e-09
7.21213e-06
-8.97964e-08
-9.52568e-08
7.67957e-06
-1.41338e-07
-2.71612e-07
6.85024e-06
-1.45136e-07
-5.30392e-07
5.29038e-06
-9.0384e-08
-8.82324e-07
3.6387e-06
6.53164e-09
-1.37294e-06
2.26535e-06
1.15857e-07
-2.03747e-06
1.3798e-06
2.05483e-07
-2.88499e-06
1.04678e-06
2.5601e-07
-3.88618e-06
9.88407e-07
2.89801e-07
-4.99094e-06
1.15981e-06
3.10123e-07
-6.13821e-06
1.53072e-06
3.1993e-07
-7.23856e-06
2.00847e-06
3.21149e-07
-8.22582e-06
2.43635e-06
3.18856e-07
-9.05754e-06
2.73248e-06
3.19536e-07
-9.71522e-06
2.87961e-06
3.26723e-07
-1.0235e-05
2.88283e-06
3.39145e-07
-1.05901e-05
2.69915e-06
3.56708e-07
-1.0677e-05
2.22588e-06
3.71424e-07
-1.04341e-05
1.37831e-06
3.7154e-07
-1.00414e-05
3.44602e-07
3.39383e-07
-9.47397e-06
-8.46537e-07
3.04092e-07
-8.75306e-06
-2.30055e-06
2.24714e-07
-8.48166e-06
-3.44157e-06
1.91835e-07
-8.25123e-06
-4.52532e-06
1.57362e-07
-7.90064e-06
-5.60294e-06
1.21416e-07
-7.36937e-06
-6.6683e-06
6.83816e-08
-6.66076e-06
-7.66073e-06
-4.10623e-09
-5.79163e-06
-8.52719e-06
-8.72215e-08
-4.78251e-06
-9.24093e-06
-1.66274e-07
-3.67292e-06
-9.76537e-06
-2.22312e-07
-2.51805e-06
-1.00312e-05
-2.439e-07
-1.39848e-06
-9.94329e-06
-2.18196e-07
-4.52153e-07
-8.73698e-06
-1.52638e-07
-4.54099e-06
-5.43625e-08
5.09243e-08
3.90947e-06
-1.27832e-08
3.03681e-08
7.29011e-06
-5.72776e-08
-6.46379e-08
7.86433e-06
-8.96107e-08
-2.46363e-07
7.11518e-06
-8.30507e-08
-5.07102e-07
5.57818e-06
-2.68687e-08
-8.60776e-07
3.92942e-06
6.31722e-08
-1.33743e-06
2.58543e-06
1.56782e-07
-1.93599e-06
1.7498e-06
2.28738e-07
-2.59907e-06
1.44052e-06
2.6949e-07
-3.30348e-06
1.39382e-06
2.99155e-07
-4.01441e-06
1.55122e-06
3.19702e-07
-4.68448e-06
1.86889e-06
3.32089e-07
-5.27931e-06
2.26503e-06
3.38466e-07
-5.78784e-06
2.60293e-06
3.42113e-07
-6.2153e-06
2.81418e-06
3.45906e-07
-6.56214e-06
2.87561e-06
3.50973e-07
-6.8229e-06
2.78954e-06
3.54226e-07
-6.95901e-06
2.4871e-06
3.48388e-07
-6.92119e-06
1.868e-06
3.20327e-07
-6.78085e-06
9.64902e-07
2.73364e-07
-6.78306e-06
1.12221e-07
2.34962e-07
-6.63035e-06
-1.17308e-06
1.74226e-07
-6.68859e-06
-2.38561e-06
1.43667e-07
-6.6851e-06
-3.57187e-06
1.27152e-07
-6.54218e-06
-4.78043e-06
1.12523e-07
-6.24079e-06
-5.99419e-06
9.0188e-08
-5.79398e-06
-7.16411e-06
4.93153e-08
-5.21291e-06
-8.23651e-06
-5.01392e-09
-4.50626e-06
-9.17033e-06
-6.32251e-08
-3.69906e-06
-9.93205e-06
-1.15827e-07
-2.82771e-06
-1.04788e-05
-1.57635e-07
-1.9299e-06
-1.07412e-05
-1.87563e-07
-1.07277e-06
-1.06052e-05
-1.94808e-07
-3.58989e-07
-9.29258e-06
-1.5761e-07
-4.83521e-06
-6.47556e-08
9.69567e-08
3.82968e-06
-1.70388e-08
1.36846e-07
7.30055e-06
-5.02266e-08
7.0147e-08
7.99862e-06
-6.7492e-08
-1.3793e-07
7.38006e-06
-5.66908e-08
-4.69208e-07
5.91805e-06
-8.4619e-09
-8.88345e-07
4.2839e-06
6.48129e-08
-1.36313e-06
2.91979e-06
1.40574e-07
-1.84875e-06
2.03363e-06
2.01918e-07
-2.29933e-06
1.64951e-06
2.41701e-07
-2.73345e-06
1.55671e-06
2.71335e-07
-3.13386e-06
1.65626e-06
2.95498e-07
-3.47832e-06
1.89703e-06
3.16464e-07
-3.76187e-06
2.21613e-06
3.3258e-07
-4.00265e-06
2.5007e-06
3.43136e-07
-4.21527e-06
2.67833e-06
3.48601e-07
-4.39956e-06
2.71131e-06
3.48721e-07
-4.53732e-06
2.58676e-06
3.40725e-07
-4.62613e-06
2.25681e-06
3.1933e-07
-4.67906e-06
1.64161e-06
2.79595e-07
-4.75195e-06
8.05119e-07
2.32959e-07
-4.82086e-06
-1.82895e-08
1.99769e-07
-4.92341e-06
-1.2281e-06
1.57964e-07
-4.97895e-06
-2.45851e-06
1.28788e-07
-4.94402e-06
-3.70677e-06
1.00287e-07
-4.81929e-06
-4.97057e-06
6.57269e-08
-4.60432e-06
-6.22934e-06
2.05019e-08
-4.2951e-06
-7.43293e-06
-4.00944e-08
-3.8862e-06
-8.53879e-06
-1.06317e-07
-3.37867e-06
-9.50509e-06
-1.72476e-07
-2.78772e-06
-1.02879e-05
-2.34819e-07
-2.13739e-06
-1.08387e-05
-2.90204e-07
-1.45565e-06
-1.1091e-05
-3.31661e-07
-8.01652e-07
-1.09267e-05
-3.32112e-07
-2.6404e-07
-9.56992e-06
-2.59619e-07
-4.99049e-06
-1.08751e-07
1.78199e-07
3.67836e-06
-2.68419e-08
3.3583e-07
7.20084e-06
-5.78914e-08
3.75523e-07
8.03489e-06
-7.59349e-08
2.36085e-07
7.59099e-06
-7.14684e-08
-8.97562e-08
6.28001e-06
-3.60909e-08
-5.27157e-07
4.69684e-06
2.44941e-08
-9.89367e-07
3.28849e-06
9.3538e-08
-1.41146e-06
2.29972e-06
1.56042e-07
-1.77063e-06
1.80566e-06
2.0305e-07
-2.10416e-06
1.65143e-06
2.38848e-07
-2.41542e-06
1.69836e-06
2.69209e-07
-2.70828e-06
1.89538e-06
2.94572e-07
-2.97707e-06
2.17019e-06
3.14784e-07
-3.23097e-06
2.42501e-06
3.29664e-07
-3.47098e-06
2.58065e-06
3.37762e-07
-3.69746e-06
2.59932e-06
3.38554e-07
-3.90054e-06
2.46142e-06
3.28521e-07
-4.07292e-06
2.12533e-06
3.03989e-07
-4.22119e-06
1.52889e-06
2.61149e-07
-4.35983e-06
7.33152e-07
2.10782e-07
-4.48347e-06
-6.20315e-08
1.67568e-07
-4.58832e-06
-1.23243e-06
1.09362e-07
-4.64087e-06
-2.4626e-06
5.68128e-08
-4.64063e-06
-3.71407e-06
7.24922e-09
-4.57364e-06
-4.9923e-06
-4.51091e-08
-4.40293e-06
-6.28983e-06
-1.10074e-07
-4.10528e-06
-7.55493e-06
-1.75512e-07
-3.68341e-06
-8.72238e-06
-2.38159e-07
-3.14856e-06
-9.74453e-06
-2.95303e-07
-2.53292e-06
-1.0562e-05
-3.41482e-07
-1.88052e-06
-1.1124e-05
-3.67051e-07
-1.2361e-06
-1.13765e-05
-3.58792e-07
-6.53743e-07
-1.12076e-05
-3.01297e-07
-1.9965e-07
-9.8175e-06
-2.06298e-07
-5.10245e-06
-8.76794e-08
2.08984e-07
3.50392e-06
-3.46222e-08
4.78823e-07
7.00172e-06
-7.07757e-08
6.30002e-07
7.97169e-06
-8.80378e-08
6.29284e-07
7.67528e-06
-8.36328e-08
4.10969e-07
6.55102e-06
-5.27584e-08
4.89782e-08
5.05647e-06
2.28399e-09
-3.64969e-07
3.63501e-06
6.73506e-08
-7.66178e-07
2.57228e-06
1.28582e-07
-1.1378e-06
1.99976e-06
1.77472e-07
-1.5065e-06
1.80463e-06
2.15467e-07
-1.88028e-06
1.82528e-06
2.46841e-07
-2.25764e-06
2.00083e-06
2.71904e-07
-2.63335e-06
2.25388e-06
2.92027e-07
-3.0023e-06
2.48864e-06
3.05332e-07
-3.35097e-06
2.61858e-06
3.10766e-07
-3.6795e-06
2.62001e-06
3.07876e-07
-3.97373e-06
2.4651e-06
2.90608e-07
-4.21821e-06
2.11368e-06
2.56227e-07
-4.41851e-06
1.52672e-06
2.02561e-07
-4.59302e-06
7.60565e-07
1.47213e-07
-4.74843e-06
-7.28495e-09
1.00803e-07
-4.89429e-06
-1.13044e-06
4.40151e-08
-5.00722e-06
-2.34206e-06
-7.44993e-09
-5.06231e-06
-3.60203e-06
-5.67913e-08
-5.02756e-06
-4.92273e-06
-1.04169e-07
-4.86773e-06
-6.2929e-06
-1.56613e-07
-4.55803e-06
-7.6587e-06
-2.05776e-07
-4.07875e-06
-8.95183e-06
-2.49684e-07
-3.45771e-06
-1.00823e-05
-2.83149e-07
-2.75007e-06
-1.09684e-05
-3.01073e-07
-2.01697e-06
-1.15607e-05
-2.96177e-07
-1.31336e-06
-1.18177e-05
-2.62214e-07
-6.89701e-07
-1.16302e-05
-2.00819e-07
-2.07092e-07
-1.01664e-05
-1.33388e-07
-5.24792e-06
-6.16289e-08
2.28752e-07
3.31342e-06
-3.84332e-08
5.63167e-07
6.74342e-06
-7.62755e-08
8.11885e-07
7.81319e-06
-9.03844e-08
9.26912e-07
7.64615e-06
-8.60762e-08
8.42847e-07
6.69301e-06
-5.811e-08
5.97434e-07
5.31181e-06
-1.01277e-08
2.61268e-07
3.92484e-06
4.61253e-08
-1.07405e-07
2.84057e-06
1.00186e-07
-4.88236e-07
2.2345e-06
1.45933e-07
-8.89694e-07
2.02265e-06
1.83304e-07
-1.31823e-06
2.03778e-06
2.15915e-07
-1.763e-06
2.20142e-06
2.4407e-07
-2.20685e-06
2.43165e-06
2.65975e-07
-2.63129e-06
2.63413e-06
2.78856e-07
-3.0216e-06
2.72816e-06
2.80656e-07
-3.36805e-06
2.69935e-06
2.67046e-07
-3.66167e-06
2.5205e-06
2.38143e-07
-3.8952e-06
2.15439e-06
1.92728e-07
-4.08898e-06
1.58284e-06
1.37577e-07
-4.25924e-06
8.52071e-07
7.86669e-08
-4.40145e-06
1.0631e-07
2.8527e-08
-4.54307e-06
-9.61202e-07
-2.7729e-08
-4.6638e-06
-2.14341e-06
-7.80135e-08
-4.72678e-06
-3.41656e-06
-1.22593e-07
-4.6924e-06
-4.78762e-06
-1.69584e-07
-4.54156e-06
-6.23025e-06
-2.13592e-07
-4.25874e-06
-7.68999e-06
-2.51646e-07
-3.8285e-06
-9.10437e-06
-2.77781e-07
-3.26772e-06
-1.0348e-05
-2.95178e-07
-2.62448e-06
-1.1313e-05
-2.98659e-07
-1.95784e-06
-1.19444e-05
-2.83087e-07
-1.31764e-06
-1.22131e-05
-2.44895e-07
-7.41638e-07
-1.20195e-05
-1.86894e-07
-2.58726e-07
-1.05222e-05
-1.27345e-07
-5.44229e-06
-6.43581e-08
2.37567e-07
3.11397e-06
-3.84267e-08
6.21429e-07
6.43626e-06
-7.69698e-08
9.54735e-07
7.5707e-06
-9.10197e-08
1.17422e-06
7.51194e-06
-8.55223e-08
1.20802e-06
6.71974e-06
-6.08289e-08
1.06801e-06
5.47013e-06
-1.8614e-08
8.08213e-07
4.15399e-06
3.03101e-08
4.7525e-07
3.095e-06
7.82253e-08
9.1733e-08
2.49744e-06
1.20309e-07
-3.34593e-07
2.29333e-06
1.55418e-07
-7.99613e-07
2.31773e-06
1.84865e-07
-1.28457e-06
2.47716e-06
2.09023e-07
-1.76028e-06
2.68157e-06
2.25606e-07
-2.20036e-06
2.8423e-06
2.31762e-07
-2.59458e-06
2.89592e-06
2.26308e-07
-2.92876e-06
2.82749e-06
2.05901e-07
-3.19888e-06
2.61766e-06
1.72804e-07
-3.40656e-06
2.23572e-06
1.26193e-07
-3.57128e-06
1.6779e-06
6.94935e-08
-3.71335e-06
9.79704e-07
1.42829e-08
-3.83217e-06
2.59785e-07
-3.48049e-08
-3.95519e-06
-7.49068e-07
-8.92773e-08
-4.06141e-06
-1.89643e-06
-1.4091e-07
-4.11942e-06
-3.17118e-06
-1.87504e-07
-4.09307e-06
-4.57961e-06
-2.34468e-07
-3.96244e-06
-6.08797e-06
-2.73015e-07
-3.69416e-06
-7.65898e-06
-2.9938e-07
-3.28299e-06
-9.20317e-06
-3.12438e-07
-2.75118e-06
-1.05685e-05
-3.11343e-07
-2.15849e-06
-1.16136e-05
-2.92221e-07
-1.57381e-06
-1.22786e-05
-2.5049e-07
-1.04564e-06
-1.25592e-05
-1.82069e-07
-5.93105e-07
-1.23741e-05
-9.79094e-08
-2.07316e-07
-1.08643e-05
-4.37106e-08
-5.61753e-06
-3.2099e-08
2.21655e-07
2.92358e-06
-3.16669e-08
6.18623e-07
6.10322e-06
-6.42844e-08
1.00926e-06
7.2541e-06
-7.43683e-08
1.32971e-06
7.25939e-06
-6.81778e-08
1.46736e-06
6.62879e-06
-4.7077e-08
1.4413e-06
5.51045e-06
-1.4704e-08
1.2649e-06
4.3043e-06
2.56445e-08
9.56975e-07
3.33639e-06
6.61143e-08
5.40994e-07
2.80939e-06
1.03671e-07
5.24403e-08
2.64536e-06
1.36195e-07
-4.79827e-07
2.68619e-06
1.63502e-07
-1.02416e-06
2.83651e-06
1.84678e-07
-1.54601e-06
3.006e-06
1.97141e-07
-2.01705e-06
3.11436e-06
1.98719e-07
-2.43288e-06
3.12287e-06
1.88624e-07
-2.78566e-06
3.01491e-06
1.65078e-07
-3.0697e-06
2.77282e-06
1.2856e-07
-3.29019e-06
2.37666e-06
7.91955e-08
-3.466e-06
1.83014e-06
2.31983e-08
-3.61823e-06
1.16342e-06
-3.18554e-08
-3.72353e-06
4.47596e-07
-8.29356e-08
-3.8684e-06
-4.66601e-07
-1.38056e-07
-3.98806e-06
-1.59165e-06
-1.85593e-07
-4.0682e-06
-2.86261e-06
-2.2891e-07
-4.09503e-06
-4.28949e-06
-2.63784e-07
-4.03473e-06
-5.86694e-06
-2.81825e-07
-3.84416e-06
-7.57066e-06
-2.79339e-07
-3.49174e-06
-9.29943e-06
-2.56586e-07
-2.95636e-06
-1.08785e-05
-2.25776e-07
-2.326e-06
-1.20657e-05
-1.78593e-07
-1.69564e-06
-1.27953e-05
-1.13964e-07
-1.12727e-06
-1.30973e-05
-3.06168e-08
-6.31454e-07
-1.29204e-05
4.99482e-08
-2.06995e-07
-1.13566e-05
6.68778e-08
-5.83369e-06
9.14009e-09
1.87307e-07
2.75902e-06
-2.32218e-08
5.48862e-07
5.79111e-06
-4.9874e-08
9.35854e-07
6.92461e-06
-5.78812e-08
1.27473e-06
6.96981e-06
-4.96867e-08
1.48755e-06
6.44768e-06
-3.20946e-08
1.5434e-06
5.45673e-06
-2.57474e-09
1.42244e-06
4.39205e-06
3.26916e-08
1.11757e-06
3.56983e-06
7.09562e-08
6.65726e-07
3.15317e-06
1.07635e-07
1.30784e-07
3.04095e-06
1.38974e-07
-4.3944e-07
3.09233e-06
1.63709e-07
-1.00058e-06
3.21752e-06
1.79781e-07
-1.51541e-06
3.33573e-06
1.84775e-07
-1.96289e-06
3.38408e-06
1.7744e-07
-2.3374e-06
3.34006e-06
1.57002e-07
-2.63388e-06
3.18613e-06
1.24918e-07
-2.8505e-06
2.90727e-06
8.18111e-08
-3.00017e-06
2.49593e-06
3.00003e-08
-3.1058e-06
1.96036e-06
-2.4993e-08
-3.18378e-06
1.32104e-06
-8.00437e-08
-3.2004e-06
5.98385e-07
-1.34582e-07
-3.2716e-06
-2.07073e-07
-1.8878e-07
-3.3652e-06
-1.26303e-06
-2.35491e-07
-3.47141e-06
-2.48079e-06
-2.76084e-07
-3.58998e-06
-3.87269e-06
-2.987e-07
-3.67888e-06
-5.48095e-06
-2.97519e-07
-3.67047e-06
-7.30885e-06
-2.70635e-07
-3.49971e-06
-9.25064e-06
-2.19941e-07
-3.14504e-06
-1.10831e-05
-1.50437e-07
-2.62511e-06
-1.25135e-05
-7.24435e-08
-2.03354e-06
-1.33982e-05
1.10914e-08
-1.45381e-06
-1.37773e-05
1.00038e-07
-9.01184e-07
-1.3642e-05
1.68526e-07
-3.4692e-07
-1.20624e-05
1.50902e-07
-6.21773e-06
3.70723e-08
1.58727e-07
2.61338e-06
-1.36133e-08
4.71688e-07
5.51088e-06
-3.32045e-08
8.15559e-07
6.61973e-06
-3.94157e-08
1.12207e-06
6.69654e-06
-3.36581e-08
1.33772e-06
6.24696e-06
-1.54058e-08
1.39086e-06
5.39139e-06
1.16433e-08
1.26356e-06
4.47427e-06
4.45275e-08
9.42939e-07
3.8094e-06
8.05133e-08
4.85481e-07
3.49574e-06
1.14414e-07
-3.62548e-08
3.4198e-06
1.42445e-07
-5.70287e-07
3.46338e-06
1.62545e-07
-1.07297e-06
3.54787e-06
1.71912e-07
-1.5114e-06
3.6055e-06
1.68237e-07
-1.87466e-06
3.59405e-06
1.52863e-07
-2.15083e-06
3.49163e-06
1.24146e-07
-2.33266e-06
3.28286e-06
8.46018e-08
-2.42193e-06
2.95936e-06
3.66334e-08
-2.43282e-06
2.52354e-06
-1.73052e-08
-2.38594e-06
1.98726e-06
-7.44089e-08
-2.29581e-06
1.36401e-06
-1.33767e-07
-2.16818e-06
6.63646e-07
-1.93583e-07
-2.05006e-06
-7.75046e-08
-2.4848e-07
-1.98696e-06
-1.03523e-06
-2.9177e-07
-1.96077e-06
-2.18595e-06
-3.21939e-07
-1.94958e-06
-3.55904e-06
-3.25754e-07
-1.93375e-06
-5.20179e-06
-2.95917e-07
-1.90314e-06
-7.10924e-06
-2.31288e-07
-1.83742e-06
-9.1725e-06
-1.44939e-07
-1.74304e-06
-1.11403e-05
-3.81045e-08
-1.55644e-06
-1.27741e-05
7.327e-08
-1.28726e-06
-1.38484e-05
1.80328e-07
-9.91443e-07
-1.43514e-05
2.77662e-07
-6.90653e-07
-1.42788e-05
3.35046e-07
-3.29368e-07
-1.27073e-05
2.82073e-07
-6.6415e-06
9.43604e-08
1.06857e-07
2.51031e-06
-4.31142e-09
3.45033e-07
5.29236e-06
-2.01394e-08
6.05432e-07
6.3854e-06
-2.64813e-08
8.23652e-07
6.50003e-06
-2.21232e-08
9.54163e-07
6.1228e-06
-6.85677e-09
9.36893e-07
5.38954e-06
1.85738e-08
7.34045e-07
4.62413e-06
5.24573e-08
3.56909e-07
4.09643e-06
8.96229e-08
-1.22936e-07
3.85129e-06
1.23852e-07
-6.42736e-07
3.7883e-06
1.50867e-07
-1.15677e-06
3.80956e-06
1.67441e-07
-1.62621e-06
3.84645e-06
1.7045e-07
-2.02554e-06
3.84445e-06
1.59965e-07
-2.33803e-06
3.77097e-06
1.35137e-07
-2.54973e-06
3.60425e-06
9.86378e-08
-2.65341e-06
3.3335e-06
5.2563e-08
-2.65231e-06
2.95858e-06
-8.36387e-10
-2.56111e-06
2.48986e-06
-5.80833e-08
-2.39724e-06
1.94072e-06
-1.1791e-07
-2.17698e-06
1.32196e-06
-1.78794e-07
-1.91895e-06
6.40492e-07
-2.35471e-07
-1.6449e-06
-7.33227e-08
-2.7889e-07
-1.34691e-06
-1.02411e-06
-3.09847e-07
-1.00494e-06
-2.21032e-06
-3.1843e-07
-5.98363e-07
-3.67154e-06
-2.94963e-07
-1.47044e-07
-5.4196e-06
-2.34466e-07
2.66913e-07
-7.3869e-06
-1.37191e-07
5.28517e-07
-9.42774e-06
-7.1282e-09
6.06697e-07
-1.13622e-05
1.43086e-07
5.37786e-07
-1.29869e-05
2.8114e-07
4.05827e-07
-1.41084e-05
3.91522e-07
2.43347e-07
-1.46585e-05
4.69163e-07
5.54948e-08
-1.45771e-05
4.85493e-07
-5.58243e-08
-1.29791e-05
3.81909e-07
-6.85049e-06
1.53111e-07
5.01706e-08
2.45783e-06
1.81285e-09
1.84997e-07
5.17213e-06
-1.50412e-08
3.28373e-07
6.26709e-06
-2.54771e-08
4.2346e-07
6.4282e-06
-2.37049e-08
4.40121e-07
6.11192e-06
-6.22618e-09
3.06869e-07
5.50184e-06
2.05009e-08
-1.9959e-08
4.8926e-06
5.78722e-08
-4.97193e-07
4.47462e-06
9.85845e-08
-1.0553e-06
4.27464e-06
1.34329e-07
-1.64292e-06
4.21613e-06
1.59371e-07
-2.21781e-06
4.21429e-06
1.69743e-07
-2.74562e-06
4.20875e-06
1.65075e-07
-3.19758e-06
4.15207e-06
1.43884e-07
-3.55035e-06
4.01365e-06
1.09603e-07
-3.79052e-06
3.77872e-06
6.51688e-08
-3.91682e-06
3.44437e-06
1.48589e-08
-3.93862e-06
3.01916e-06
-3.93946e-08
-3.87257e-06
2.51832e-06
-9.51517e-08
-3.73567e-06
1.95427e-06
-1.5114e-07
-3.53897e-06
1.32814e-06
-2.03591e-07
-3.28088e-06
6.26581e-07
-2.44934e-07
-2.97562e-06
-1.13482e-07
-2.66036e-07
-2.46702e-06
-1.27346e-06
-2.60376e-07
-1.71652e-06
-2.74288e-06
-2.19173e-07
-7.67714e-07
-4.48138e-06
-1.40284e-07
2.49636e-07
-6.41075e-06
-2.7489e-08
1.15986e-06
-8.40448e-06
1.06147e-07
1.80561e-06
-1.0319e-05
2.44382e-07
2.09136e-06
-1.20196e-05
3.70629e-07
2.01432e-06
-1.33846e-05
4.7395e-07
1.67958e-06
-1.43191e-05
5.44691e-07
1.21344e-06
-1.47655e-05
5.72531e-07
7.17081e-07
-1.46104e-05
5.28364e-07
2.53255e-07
-1.29201e-05
4.03079e-07
-6.77987e-06
1.82589e-07
-3.18055e-08
2.48231e-06
6.9444e-09
-2.59502e-08
5.17289e-06
-7.01787e-09
-1.02265e-08
6.2707e-06
-1.97083e-08
-3.19194e-08
6.46976e-06
-2.01822e-08
-1.43489e-07
6.23075e-06
-7.57609e-09
-4.36492e-07
5.76724e-06
2.72399e-08
-9.14467e-07
5.29563e-06
7.45824e-08
-1.54e-06
4.97744e-06
1.2236e-07
-2.24895e-06
4.82467e-06
1.58583e-07
-2.98656e-06
4.77557e-06
1.77842e-07
-3.70593e-06
4.75668e-06
1.7663e-07
-4.36494e-06
4.70948e-06
1.57927e-07
-4.93165e-06
4.59389e-06
1.24512e-07
-5.38942e-06
4.3898e-06
8.12397e-08
-5.73645e-06
4.09288e-06
3.24529e-08
-5.98317e-06
3.71024e-06
-1.96006e-08
-6.15003e-06
3.25634e-06
-7.07995e-08
-6.25847e-06
2.74544e-06
-1.19203e-07
-6.32165e-06
2.17887e-06
-1.61971e-07
-6.32519e-06
1.52215e-06
-1.91038e-07
-6.19666e-06
6.95036e-07
-1.97632e-07
-5.89983e-06
-2.3787e-07
-1.7329e-07
-5.09694e-06
-1.9867e-06
-9.06988e-08
-3.90494e-06
-3.95426e-06
1.82719e-08
-2.50771e-06
-6.01654e-06
1.36868e-07
-1.09636e-06
-8.07475e-06
2.51632e-07
1.45423e-07
-1.00024e-05
3.552e-07
1.06839e-06
-1.16863e-05
4.43484e-07
1.58895e-06
-1.30531e-05
5.12187e-07
1.71933e-06
-1.40719e-05
5.56197e-07
1.55758e-06
-1.47295e-05
5.71553e-07
1.23624e-06
-1.49936e-05
5.48699e-07
8.372e-07
-1.46875e-05
4.74946e-07
3.84104e-07
-1.28052e-05
3.36557e-07
-6.56774e-06
1.7195e-07
-7.70968e-08
2.55592e-06
3.21689e-09
-1.68374e-07
5.27695e-06
-1.30114e-08
-2.74311e-07
6.40308e-06
-2.66311e-08
-4.31e-07
6.6508e-06
-2.45495e-08
-7.11397e-07
6.51242e-06
-1.49857e-09
-1.16284e-06
6.17696e-06
4.14823e-08
-1.79921e-06
5.83815e-06
9.36251e-08
-2.57412e-06
5.61436e-06
1.37762e-07
-3.42017e-06
5.50733e-06
1.63156e-07
-4.2719e-06
5.46155e-06
1.65502e-07
-5.07664e-06
5.41373e-06
1.4744e-07
-5.79595e-06
5.31469e-06
1.13848e-07
-6.4112e-06
5.1384e-06
7.04654e-08
-6.92164e-06
4.87842e-06
2.15335e-08
-7.344e-06
4.54083e-06
-2.58892e-08
-7.70278e-06
4.14032e-06
-7.16137e-08
-8.02762e-06
3.69257e-06
-1.11723e-07
-8.33918e-06
3.19909e-06
-1.42452e-07
-8.6095e-06
2.60568e-06
-1.56896e-07
-8.72131e-06
1.77812e-06
-1.44596e-07
-8.70478e-06
7.73807e-07
-9.58199e-08
-8.13888e-06
-7.84217e-07
-2.02379e-08
-7.10512e-06
-3.13898e-06
1.17745e-07
-5.8145e-06
-5.46107e-06
2.15464e-07
-4.4701e-06
-7.64591e-06
2.84323e-07
-3.20028e-06
-9.68026e-06
3.3512e-07
-2.10177e-06
-1.14782e-05
3.76831e-07
-1.23486e-06
-1.29661e-05
4.12516e-07
-6.14771e-07
-1.4112e-05
4.38406e-07
-2.11712e-07
-1.49219e-05
4.4666e-07
3.56805e-08
-1.54057e-05
4.28453e-07
1.97631e-07
-1.55296e-05
3.73748e-07
2.86512e-07
-1.50622e-05
2.85497e-07
1.96737e-07
-1.29139e-05
1.97899e-07
-6.47121e-06
1.00171e-07
-3.43265e-08
2.60085e-06
-1.0764e-08
-1.32876e-07
5.40325e-06
-2.78956e-08
-2.83492e-07
6.59195e-06
-3.8383e-08
-5.08196e-07
6.90813e-06
-3.27565e-08
-8.41909e-07
6.85199e-06
-5.99111e-09
-1.34529e-06
6.64068e-06
3.95237e-08
-2.01977e-06
6.42435e-06
8.81214e-08
-2.80723e-06
6.2804e-06
1.21273e-07
-3.63374e-06
6.20336e-06
1.30324e-07
-4.43515e-06
6.14684e-06
1.15958e-07
-5.16618e-06
6.06083e-06
8.37681e-08
-5.80515e-06
5.9126e-06
4.08951e-08
-6.35125e-06
5.69107e-06
-6.74269e-09
-6.82286e-06
5.39975e-06
-4.99041e-08
-7.24088e-06
5.05062e-06
-9.19763e-08
-7.63549e-06
4.6597e-06
-1.24987e-07
-8.03169e-06
4.23432e-06
-1.45793e-07
-8.42523e-06