/*--------------------------------*- C++ -*----------------------------------*\
| =========                 |                                                 |
| \\      /  F ield         | OpenFOAM: The Open Source CFD Toolbox           |
|  \\    /   O peration     | Version:  v1906                                 |
|   \\  /    A nd           | Web:      www.OpenFOAM.com                      |
|    \\/     M anipulation  |                                                 |
\*---------------------------------------------------------------------------*/
FoamFile
{
    version     2.0;
    format      ascii;
    class       volScalarField;
    location    "950";
    object      T;
}
// * * * * * * * * * * * * * * * * * * * * * * * * * * * * * * * * * * * * * //

dimensions      [0 0 0 1 0 0 0];


internalField   nonuniform List<scalar> 
78750
(
285.657
281.705
279.626
278.886
278.706
278.687
278.686
278.689
278.689
278.689
278.69
278.688
278.683
278.673
278.659
278.641
278.62
278.595
278.567
278.535
278.498
278.458
278.412
278.362
278.305
278.241
278.17
278.095
277.959
277.724
277.379
276.904
276.206
275.143
273.485
286.006
282.502
280.376
279.385
279.063
279.013
279.037
279.095
279.166
279.241
279.317
279.391
279.463
279.532
279.597
279.657
279.709
279.75
279.778
279.795
279.806
279.832
279.909
280.071
280.323
280.636
280.959
281.191
281.285
281.253
281.036
280.539
279.743
278.597
276.874
286.465
283.665
281.737
280.6
280.112
279.987
279.994
280.062
280.147
280.233
280.316
280.391
280.459
280.52
280.573
280.62
280.659
280.69
280.712
280.725
280.726
280.722
280.72
280.738
280.801
280.918
281.078
281.241
281.362
281.401
281.26
280.781
279.96
278.799
277.098
286.803
284.454
282.72
281.588
280.996
280.75
280.688
280.699
280.741
280.79
280.838
280.879
280.913
280.94
280.961
280.979
280.994
281.009
281.027
281.049
281.077
281.118
281.177
281.262
281.375
281.511
281.656
281.787
281.853
281.765
281.431
280.839
280.028
278.9
277.183
286.993
284.921
283.328
282.225
281.592
281.298
281.208
281.21
281.251
281.3
281.342
281.374
281.397
281.41
281.415
281.413
281.407
281.399
281.391
281.388
281.401
281.447
281.544
281.692
281.864
282.026
282.149
282.178
282.081
281.833
281.428
280.829
280.034
278.929
277.184
287.143
285.299
283.847
282.797
282.145
281.821
281.703
281.692
281.724
281.761
281.789
281.807
281.815
281.816
281.812
281.807
281.81
281.837
281.898
282.002
282.135
282.272
282.394
282.492
282.543
282.527
282.427
282.263
282.027
281.708
281.279
280.72
280.002
278.925
277.158
287.252
285.588
284.268
283.283
282.629
282.28
282.136
282.104
282.115
282.133
282.147
282.156
282.165
282.182
282.219
282.282
282.374
282.481
282.588
282.683
282.763
282.828
282.851
282.845
282.802
282.725
282.599
282.419
282.17
281.838
281.408
280.859
280.117
278.972
277.182
287.338
285.822
284.622
283.705
283.057
282.685
282.509
282.445
282.436
282.447
282.464
282.492
282.534
282.594
282.67
282.757
282.845
282.929
283.009
283.089
283.179
283.271
283.344
283.381
283.383
283.325
283.197
282.998
282.724
282.375
281.944
281.406
280.671
279.513
277.724
287.395
285.984
284.875
284.014
283.376
282.989
282.792
282.713
282.698
282.708
282.732
282.773
282.831
282.905
282.991
283.081
283.176
283.283
283.411
283.583
283.781
283.954
284.077
284.119
284.118
284.041
283.884
283.655
283.359
282.999
282.565
282.033
281.306
280.141
278.335
287.439
286.106
285.063
284.244
283.617
283.228
283.027
282.947
282.932
282.942
282.968
283.013
283.08
283.164
283.258
283.366
283.492
283.648
283.861
284.118
284.357
284.551
284.666
284.694
284.656
284.541
284.356
284.106
283.795
283.42
282.974
282.434
281.691
280.497
278.67
287.48
286.215
285.231
284.452
283.838
283.455
283.26
283.186
283.174
283.186
283.214
283.261
283.33
283.42
283.525
283.651
283.801
283.994
284.249
284.518
284.751
284.927
285.02
285.03
284.966
284.833
284.635
284.375
284.055
283.671
283.219
282.674
281.927
280.728
278.904
287.534
286.359
285.441
284.708
284.117
283.735
283.531
283.449
283.434
283.445
283.475
283.524
283.596
283.692
283.809
283.951
284.119
284.331
284.597
284.858
285.072
285.224
285.285
285.28
285.203
285.06
284.856
284.593
284.273
283.893
283.453
282.932
282.219
281.051
279.237
287.59
286.517
285.665
284.983
284.426
284.045
283.829
283.733
283.711
283.724
283.761
283.819
283.904
284.015
284.15
284.309
284.495
284.723
284.986
285.223
285.405
285.526
285.567
285.546
285.459
285.309
285.098
284.828
284.499
284.116
283.677
283.163
282.457
281.292
279.474
287.64
286.662
285.869
285.236
284.715
284.34
284.115
284.009
283.984
284.004
284.051
284.126
284.23
284.359
284.511
284.684
284.881
285.111
285.355
285.565
285.723
285.825
285.856
285.826
285.731
285.573
285.349
285.06
284.71
284.307
283.854
283.329
282.614
281.443
279.625
287.684
286.788
286.048
285.46
284.976
284.616
284.392
284.285
284.263
284.29
284.351
284.443
284.565
284.711
284.875
285.054
285.253
285.475
285.694
285.875
286.004
286.08
286.092
286.041
285.93
285.756
285.519
285.217
284.855
284.442
283.989
283.477
282.788
281.648
279.84
287.725
286.908
286.223
285.683
285.239
284.895
284.673
284.563
284.542
284.577
284.65
284.759
284.898
285.057
285.231
285.415
285.613
285.82
286.009
286.154
286.246
286.281
286.267
286.2
286.08
285.903
285.662
285.352
284.976
284.551
284.092
283.584
282.904
281.772
279.962
287.756
287
286.364
285.866
285.459
285.139
284.93
284.834
284.829
284.881
284.975
285.105
285.26
285.429
285.607
285.791
285.979
286.156
286.304
286.408
286.467
286.483
286.461
286.4
286.294
286.133
285.898
285.574
285.165
284.699
284.209
283.681
282.99
281.85
280.038
287.782
287.077
286.481
286.019
285.645
285.351
285.166
285.094
285.11
285.183
285.297
285.443
285.608
285.782
285.961
286.139
286.307
286.455
286.57
286.65
286.695
286.708
286.695
286.651
286.569
286.427
286.19
285.847
285.407
284.9
284.368
283.815
283.111
281.958
280.121
287.807
287.148
286.589
286.16
285.815
285.549
285.392
285.346
285.385
285.478
285.609
285.768
285.941
286.119
286.295
286.462
286.611
286.733
286.825
286.887
286.92
286.928
286.911
286.853
286.728
286.52
286.235
285.869
285.428
284.925
284.39
283.826
283.116
281.963
280.124
287.832
287.219
286.695
286.296
285.983
285.747
285.618
285.597
285.657
285.769
285.916
286.086
286.266
286.445
286.614
286.766
286.892
286.99
287.059
287.099
287.108
287.085
287.02
286.902
286.725
286.491
286.192
285.83
285.404
284.917
284.386
283.824
283.112
281.954
280.112
287.856
287.287
286.8
286.431
286.147
285.94
285.838
285.837
285.914
286.043
286.208
286.39
286.576
286.751
286.907
287.037
287.137
287.206
287.243
287.245
287.205
287.118
286.966
286.75
286.488
286.191
285.864
285.51
285.125
284.701
284.225
283.675
282.94
281.751
279.899
287.876
287.348
286.896
286.555
286.301
286.129
286.062
286.09
286.191
286.342
286.521
286.706
286.882
287.036
287.163
287.26
287.325
287.347
287.329
287.26
287.132
286.923
286.65
286.366
286.084
285.789
285.475
285.133
284.763
284.359
283.902
283.359
282.61
281.405
279.568
287.897
287.409
286.989
286.674
286.45
286.312
286.275
286.326
286.445
286.606
286.784
286.957
287.11
287.236
287.332
287.395
287.415
287.394
287.32
287.179
286.962
286.709
286.462
286.232
285.994
285.728
285.415
285.073
284.688
284.265
283.795
283.245
282.491
281.287
279.472
287.918
287.47
287.082
286.794
286.602
286.498
286.487
286.554
286.678
286.832
286.993
287.142
287.268
287.366
287.436
287.469
287.466
287.416
287.309
287.137
286.919
286.684
286.458
286.233
285.992
285.722
285.424
285.069
284.674
284.243
283.77
283.22
282.47
281.271
279.461
287.94
287.533
287.179
286.919
286.754
286.674
286.675
286.744
286.859
286.998
287.137
287.263
287.368
287.448
287.501
287.521
287.508
287.453
287.343
287.172
286.964
286.745
286.537
286.33
286.1
285.819
285.471
285.072
284.639
284.18
283.689
283.131
282.385
281.209
279.42
287.963
287.599
287.279
287.042
286.893
286.824
286.826
286.887
286.989
287.11
287.232
287.342
287.434
287.504
287.55
287.567
287.553
287.502
287.399
287.232
287.032
286.841
286.677
286.533
286.388
286.204
285.932
285.526
284.998
284.42
283.843
283.247
282.502
281.358
279.61
287.986
287.664
287.378
287.162
287.03
286.972
286.974
287.026
287.112
287.214
287.317
287.412
287.492
287.554
287.595
287.613
287.605
287.569
287.502
287.397
287.268
287.156
287.084
287.059
287.08
287.125
287.087
286.841
286.313
285.54
284.671
283.921
283.143
281.99
280.247
288.013
287.742
287.494
287.298
287.173
287.113
287.106
287.135
287.198
287.278
287.362
287.443
287.515
287.574
287.619
287.647
287.658
287.651
287.623
287.58
287.53
287.488
287.461
287.47
287.532
287.591
287.586
287.514
287.25
286.691
285.842
284.846
283.907
282.733
280.863
288.033
287.803
287.59
287.416
287.296
287.229
287.209
287.221
287.261
287.32
287.388
287.457
287.521
287.578
287.625
287.66
287.684
287.698
287.7
287.693
287.681
287.674
287.671
287.662
287.642
287.597
287.519
287.367
287.1
286.623
285.857
284.882
283.931
282.763
280.881
288.046
287.841
287.653
287.498
287.39
287.328
287.304
287.309
287.337
287.381
287.436
287.493
287.549
287.6
287.645
287.68
287.708
287.727
287.742
287.751
287.75
287.726
287.655
287.524
287.309
287.009
286.652
286.25
285.808
285.32
284.774
284.168
283.459
282.356
280.471
288.055
287.868
287.702
287.57
287.482
287.432
287.413
287.415
287.435
287.467
287.507
287.55
287.594
287.637
287.677
287.716
287.754
287.778
287.766
287.697
287.534
287.257
286.96
286.658
286.359
286.064
285.743
285.392
284.996
284.564
284.087
283.534
282.775
281.547
279.715
288.064
287.896
287.749
287.635
287.558
287.512
287.49
287.487
287.498
287.523
287.56
287.606
287.66
287.717
287.774
287.819
287.829
287.782
287.655
287.439
287.183
286.965
286.787
286.601
286.373
286.092
285.764
285.399
284.994
284.555
284.075
283.518
282.745
281.502
279.682
288.071
287.917
287.784
287.681
287.612
287.572
287.556
287.559
287.581
287.621
287.675
287.739
287.807
287.87
287.918
287.935
287.912
287.839
287.721
287.579
287.442
287.295
287.116
286.898
286.645
286.356
286.018
285.626
285.193
284.726
284.23
283.676
282.919
281.675
279.853
288.078
287.938
287.817
287.729
287.675
287.652
287.653
287.676
287.721
287.78
287.85
287.923
287.995
288.058
288.09
288.083
288.035
287.948
287.822
287.673
287.505
287.316
287.112
286.89
286.64
286.359
286.041
285.68
285.276
284.835
284.358
283.815
283.065
281.824
279.984
288.087
287.964
287.865
287.801
287.777
287.777
287.805
287.855
287.922
288.002
288.089
288.17
288.202
288.188
288.127
288.027
287.849
287.626
287.435
287.277
287.126
286.969
286.791
286.585
286.357
286.104
285.824
285.511
285.155
284.751
284.297
283.76
283.004
281.756
279.916
288.101
288.006
287.939
287.912
287.915
287.95
288.01
288.088
288.175
288.25
288.269
288.242
288.177
288.035
287.792
287.561
287.409
287.335
287.276
287.207
287.11
286.972
286.792
286.571
286.317
286.035
285.73
285.402
285.043
284.645
284.192
283.638
282.836
281.562
279.745
288.125
288.075
288.048
288.052
288.088
288.148
288.222
288.296
288.328
288.318
288.262
288.141
287.901
287.657
287.538
287.527
287.56
287.591
287.614
287.621
287.57
287.437
287.232
286.965
286.651
286.302
285.933
285.555
285.167
284.753
284.289
283.712
282.878
281.593
279.799
288.147
288.139
288.147
288.18
288.234
288.3
288.362
288.391
288.38
288.315
288.172
287.967
287.8
287.748
287.8
287.913
288.045
288.172
288.28
288.345
288.348
288.264
288.09
287.839
287.52
287.142
286.719
286.269
285.808
285.342
284.849
284.257
283.406
282.092
280.295
288.166
288.193
288.229
288.281
288.341
288.399
288.439
288.445
288.407
288.321
288.181
288.012
287.92
287.947
288.051
288.189
288.335
288.471
288.562
288.56
288.491
288.373
288.216
288.016
287.769
287.477
287.134
286.735
286.28
285.783
285.249
284.642
283.813
282.505
280.657
288.178
288.231
288.287
288.351
288.413
288.464
288.496
288.495
288.456
288.368
288.243
288.13
288.078
288.103
288.184
288.295
288.418
288.529
288.585
288.567
288.487
288.363
288.202
288.005
287.765
287.475
287.138
286.749
286.299
285.798
285.261
284.655
283.83
282.523
280.671
288.184
288.248
288.312
288.382
288.453
288.516
288.554
288.557
288.528
288.458
288.367
288.279
288.228
288.233
288.289
288.38
288.496
288.601
288.624
288.567
288.425
288.25
288.051
287.838
287.6
287.327
287.013
286.659
286.251
285.782
285.251
284.644
283.826
282.524
280.664
288.187
288.253
288.315
288.381
288.453
288.526
288.585
288.622
288.632
288.619
288.569
288.512
288.47
288.468
288.494
288.565
288.647
288.665
288.633
288.497
288.296
288.097
287.917
287.715
287.479
287.194
286.854
286.457
286.034
285.58
285.077
284.488
283.677
282.389
280.533
288.195
288.274
288.337
288.396
288.461
288.529
288.589
288.632
288.658
288.673
288.678
288.679
288.68
288.691
288.727
288.75
288.744
288.67
288.526
288.366
288.234
288.09
287.922
287.727
287.491
287.204
286.857
286.452
285.998
285.507
284.973
284.363
283.535
282.232
280.387
288.239
288.386
288.486
288.55
288.6
288.653
288.711
288.765
288.805
288.83
288.846
288.854
288.859
288.849
288.795
288.701
288.59
288.493
288.414
288.328
288.231
288.117
287.983
287.813
287.59
287.301
286.942
286.517
286.039
285.525
284.978
284.363
283.532
282.226
280.382
288.296
288.547
288.711
288.798
288.843
288.87
288.89
288.897
288.896
288.885
288.859
288.815
288.752
288.682
288.622
288.573
288.528
288.485
288.439
288.399
288.354
288.285
288.178
288.022
287.802
287.508
287.131
286.675
286.161
285.612
285.037
284.4
283.556
282.235
280.375
288.278
288.507
288.662
288.746
288.789
288.803
288.795
288.771
288.739
288.706
288.677
288.655
288.641
288.625
288.608
288.593
288.584
288.575
288.56
288.524
288.461
288.369
288.24
288.065
287.833
287.533
287.158
286.705
286.186
285.624
285.037
284.399
283.559
282.239
280.373
288.213
288.329
288.411
288.465
288.502
288.528
288.551
288.576
288.6
288.618
288.631
288.639
288.645
288.65
288.652
288.65
288.637
288.614
288.577
288.521
288.441
288.328
288.177
287.98
287.732
287.425
287.056
286.623
286.129
285.585
284.998
284.357
283.519
282.196
280.304
288.19
288.263
288.326
288.384
288.438
288.489
288.533
288.57
288.6
288.626
288.646
288.662
288.672
288.673
288.669
288.654
288.628
288.582
288.514
288.419
288.29
288.122
287.912
287.658
287.359
287.019
286.638
286.218
285.759
285.26
284.714
284.091
283.255
281.934
280.041
288.196
288.28
288.354
288.417
288.471
288.517
288.555
288.588
288.617
288.641
288.659
288.67
288.673
288.667
288.648
288.611
288.549
288.457
288.331
288.17
287.971
287.736
287.468
287.164
286.835
286.485
286.112
285.713
285.284
284.82
284.311
283.722
282.914
281.638
279.806
288.205
288.305
288.388
288.455
288.506
288.546
288.579
288.608
288.633
288.651
288.662
288.663
288.653
288.629
288.583
288.507
288.39
288.238
288.054
287.842
287.612
287.371
287.122
286.867
286.597
286.298
285.967
285.603
285.203
284.761
284.267
283.689
282.894
281.627
279.798
288.212
288.324
288.415
288.485
288.537
288.573
288.602
288.626
288.643
288.651
288.649
288.635
288.605
288.556
288.479
288.363
288.209
288.034
287.855
287.68
287.501
287.308
287.097
286.862
286.597
286.298
285.965
285.599
285.196
284.755
284.262
283.684
282.884
281.614
279.791
288.218
288.341
288.44
288.514
288.565
288.598
288.622
288.638
288.643
288.639
288.623
288.592
288.544
288.476
288.378
288.25
288.113
287.975
287.833
287.685
287.53
287.361
287.169
286.945
286.682
286.376
286.029
285.645
285.23
284.785
284.298
283.728
282.931
281.662
279.849
288.221
288.35
288.454
288.532
288.584
288.615
288.633
288.639
288.636
288.62
288.591
288.55
288.495
288.423
288.331
288.225
288.115
288.004
287.891
287.774
287.648
287.505
287.333
287.123
286.867
286.562
286.21
285.816
285.392
284.941
284.453
283.884
283.082
281.798
279.98
288.22
288.347
288.451
288.531
288.584
288.615
288.631
288.634
288.624
288.603
288.572
288.531
288.481
288.414
288.337
288.256
288.173
288.089
288.004
287.913
287.812
287.691
287.541
287.352
287.114
286.82
286.471
286.073
285.637
285.173
284.671
284.086
283.262
281.955
280.126
288.217
288.337
288.438
288.517
288.572
288.604
288.62
288.622
288.613
288.594
288.566
288.53
288.484
288.431
288.373
288.312
288.25
288.186
288.118
288.043
287.956
287.849
287.713
287.539
287.31
287.02
286.67
286.268
285.825
285.348
284.829
284.223
283.38
282.059
280.221
288.212
288.324
288.418
288.493
288.546
288.58
288.598
288.603
288.598
288.584
288.561
288.531
288.494
288.452
288.407
288.359
288.309
288.256
288.196
288.127
288.041
287.933
287.786
287.59
287.344
287.05
286.709
286.321
285.889
285.413
284.891
284.283
283.439
282.115
280.272
288.206
288.309
288.396
288.464
288.513
288.546
288.566
288.575
288.574
288.564
288.547
288.523
288.495
288.462
288.426
288.387
288.344
288.294
288.236
288.165
288.072
287.948
287.79
287.589
287.343
287.048
286.709
286.325
285.896
285.428
284.912
284.309
283.471
282.153
280.307
288.201
288.293
288.37
288.43
288.474
288.506
288.526
288.538
288.541
288.536
288.525
288.509
288.487
288.462
288.432
288.398
288.358
288.309
288.248
288.171
288.073
287.946
287.782
287.576
287.326
287.032
286.696
286.317
285.894
285.427
284.913
284.309
283.471
282.153
280.306
288.194
288.274
288.341
288.393
288.432
288.461
288.482
288.496
288.503
288.504
288.499
288.489
288.475
288.455
288.43
288.398
288.358
288.309
288.248
288.169
288.065
287.929
287.755
287.541
287.289
286.995
286.658
286.281
285.866
285.411
284.904
284.303
283.465
282.151
280.307
288.187
288.255
288.311
288.356
288.39
288.417
288.438
288.454
288.464
288.47
288.471
288.467
288.458
288.443
288.422
288.393
288.356
288.308
288.245
288.163
288.053
287.912
287.736
287.524
287.274
286.98
286.642
286.26
285.84
285.383
284.879
284.279
283.443
282.137
280.301
288.183
288.245
288.297
288.338
288.367
288.39
288.409
288.425
288.437
288.446
288.45
288.451
288.446
288.435
288.417
288.391
288.355
288.307
288.246
288.165
288.06
287.927
287.764
287.566
287.327
287.04
286.7
286.308
285.872
285.401
284.888
284.29
283.463
282.17
280.347
288.184
288.246
288.299
288.34
288.369
288.391
288.41
288.425
288.437
288.446
288.45
288.451
288.447
288.437
288.421
288.398
288.367
288.326
288.273
288.206
288.119
288.011
287.874
287.702
287.484
287.206
286.86
286.449
285.992
285.503
284.981
284.38
283.552
282.259
280.435
288.187
288.257
288.317
288.362
288.393
288.414
288.431
288.444
288.455
288.462
288.466
288.466
288.462
288.453
288.44
288.421
288.398
288.369
288.333
288.287
288.227
288.147
288.04
287.895
287.695
287.422
287.063
286.623
286.13
285.613
285.07
284.458
283.626
282.337
280.519
288.194
288.279
288.351
288.405
288.442
288.465
288.481
288.493
288.502
288.507
288.509
288.507
288.502
288.494
288.482
288.468
288.453
288.436
288.415
288.389
288.351
288.295
288.212
288.09
287.912
287.656
287.297
286.834
286.297
285.735
285.164
284.543
283.719
282.435
280.615
288.203
288.304
288.391
288.457
288.503
288.531
288.551
288.564
288.573
288.577
288.578
288.575
288.569
288.561
288.551
288.54
288.53
288.52
288.509
288.495
288.471
288.431
288.367
288.27
288.123
287.905
287.571
287.107
286.539
285.926
285.314
284.674
283.846
282.551
280.714
288.211
288.328
288.427
288.504
288.557
288.593
288.62
288.639
288.651
288.657
288.659
288.657
288.652
288.645
288.636
288.628
288.62
288.613
288.607
288.597
288.579
288.547
288.493
288.406
288.262
288.014
287.659
287.19
286.622
285.997
285.357
284.705
283.876
282.579
280.729
288.22
288.354
288.465
288.546
288.602
288.644
288.678
288.703
288.721
288.732
288.737
288.738
288.735
288.73
288.724
288.717
288.711
288.706
288.7
288.689
288.669
288.631
288.565
288.453
288.271
288.012
287.657
287.189
286.624
285.996
285.356
284.702
283.875
282.578
280.725
288.232
288.385
288.507
288.589
288.647
288.693
288.731
288.76
288.782
288.797
288.806
288.811
288.811
288.809
288.805
288.8
288.794
288.788
288.779
288.763
288.733
288.681
288.594
288.455
288.257
287.971
287.586
287.107
286.547
285.934
285.304
284.65
283.818
282.516
280.652
288.244
288.418
288.55
288.635
288.695
288.744
288.784
288.816
288.841
288.859
288.871
288.878
288.881
288.881
288.879
288.875
288.869
288.86
288.847
288.823
288.783
288.717
288.612
288.447
288.204
287.873
287.456
286.957
286.389
285.782
285.159
284.509
283.677
282.374
280.514
288.255
288.448
288.591
288.68
288.744
288.797
288.84
288.874
288.901
288.921
288.936
288.945
288.95
288.952
288.951
288.947
288.939
288.927
288.908
288.878
288.828
288.747
288.612
288.42
288.152
287.806
287.382
286.888
286.339
285.744
285.127
284.48
283.653
282.358
280.506
288.265
288.472
288.625
288.721
288.79
288.847
288.894
288.932
288.962
288.985
289.001
289.013
289.02
289.023
289.022
289.017
289.007
288.991
288.967
288.93
288.863
288.755
288.601
288.383
288.101
287.756
287.349
286.876
286.337
285.745
285.128
284.48
283.652
282.354
280.498
288.27
288.488
288.647
288.75
288.826
288.888
288.94
288.982
289.016
289.043
289.063
289.077
289.087
289.091
289.09
289.084
289.071
289.05
289.015
288.955
288.86
288.72
288.521
288.267
287.963
287.615
287.221
286.773
286.266
285.704
285.101
284.453
283.617
282.312
280.45
288.274
288.497
288.662
288.771
288.852
288.92
288.977
289.024
289.062
289.093
289.116
289.133
289.145
289.15
289.148
289.139
289.118
289.081
289.023
288.927
288.776
288.566
288.308
288.015
287.696
287.351
286.974
286.557
286.09
285.571
285.004
284.378
283.556
282.26
280.402
288.276
288.505
288.675
288.79
288.877
288.949
289.01
289.06
289.102
289.135
289.161
289.18
289.191
289.194
289.187
289.165
289.128
289.065
288.954
288.779
288.547
288.281
287.993
287.704
287.408
287.093
286.746
286.357
285.92
285.434
284.9
284.3
283.494
282.21
280.364
288.278
288.511
288.689
288.812
288.904
288.981
289.044
289.097
289.14
289.174
289.2
289.217
289.224
289.218
289.196
289.156
289.085
288.96
288.765
288.52
288.27
288.033
287.816
287.586
287.333
287.044
286.709
286.324
285.888
285.406
284.878
284.279
283.468
282.178
280.342
288.278
288.514
288.701
288.834
288.935
289.017
289.083
289.136
289.179
289.211
289.233
289.243
289.239
289.217
289.175
289.104
288.985
288.805
288.598
288.402
288.212
288.025
287.832
287.623
287.383
287.099
286.761
286.366
285.92
285.433
284.907
284.308
283.491
282.201
280.373
288.276
288.511
288.703
288.849
288.963
289.052
289.121
289.175
289.215
289.243
289.257
289.257
289.239
289.203
289.145
289.057
288.927
288.768
288.601
288.438
288.283
288.133
287.977
287.802
287.592
287.328
286.993
286.583
286.111
285.601
285.065
284.465
283.644
282.347
280.526
288.275
288.509
288.7
288.852
288.975
289.074
289.149
289.205
289.244
289.267
289.274
289.266
289.241
289.201
289.144
289.062
288.952
288.827
288.698
288.574
288.456
288.342
288.224
288.091
287.925
287.699
287.389
286.976
286.473
285.918
285.345
284.724
283.888
282.569
280.738
288.276
288.512
288.703
288.855
288.982
289.084
289.164
289.222
289.261
289.283
289.288
289.279
289.256
289.222
289.175
289.11
289.03
288.938
288.84
288.741
288.643
288.547
288.45
288.342
288.207
288.021
287.754
287.372
286.865
286.264
285.632
284.97
284.108
282.763
280.908
288.28
288.524
288.714
288.863
288.989
289.092
289.172
289.231
289.271
289.292
289.298
289.291
289.273
289.244
289.202
289.147
289.08
289.002
288.916
288.825
288.73
288.631
288.526
288.408
288.264
288.076
287.821
287.472
287.009
286.434
285.784
285.088
284.218
282.866
280.967
288.29
288.549
288.741
288.885
289.007
289.106
289.182
289.237
289.273
289.292
289.297
289.29
289.27
289.238
289.192
289.135
289.067
288.99
288.905
288.814
288.719
288.617
288.505
288.376
288.218
288.014
287.747
287.403
286.967
286.425
285.783
285.085
284.215
282.866
280.958
288.303
288.583
288.778
288.919
289.034
289.124
289.192
289.239
289.269
289.28
289.277
289.259
289.226
289.178
289.118
289.051
288.977
288.897
288.814
288.725
288.629
288.521
288.394
288.237
288.037
287.785
287.47
287.094
286.658
286.166
285.602
284.947
284.081
282.724
280.794
288.31
288.596
288.793
288.931
289.039
289.121
289.179
289.214
289.228
289.223
289.202
289.163
289.108
289.046
288.978
288.907
288.834
288.759
288.679
288.59
288.487
288.361
288.202
287.998
287.742
287.431
287.064
286.647
286.191
285.7
285.166
284.545
283.681
282.315
280.408
288.307
288.585
288.78
288.909
289.002
289.067
289.106
289.12
289.114
289.089
289.047
288.992
288.933
288.874
288.814
288.755
288.693
288.625
288.547
288.453
288.336
288.184
287.989
287.749
287.466
287.143
286.782
286.378
285.922
285.415
284.857
284.221
283.358
282.013
280.145
288.284
288.518
288.69
288.8
288.872
288.917
288.936
288.933
288.914
288.881
288.84
288.799
288.759
288.721
288.682
288.64
288.589
288.527
288.451
288.354
288.231
288.077
287.892
287.672
287.415
287.118
286.772
286.373
285.917
285.407
284.846
284.207
283.346
282.004
280.139
288.238
288.388
288.504
288.586
288.64
288.673
288.687
288.689
288.682
288.672
288.661
288.65
288.637
288.62
288.598
288.57
288.532
288.484
288.418
288.331
288.217
288.075
287.902
287.7
287.464
287.182
286.843
286.439
285.971
285.449
284.879
284.237
283.377
282.042
280.187
288.197
288.282
288.356
288.416
288.463
288.499
288.528
288.553
288.574
288.59
288.602
288.608
288.607
288.6
288.584
288.56
288.528
288.484
288.425
288.348
288.25
288.13
287.986
287.813
287.601
287.334
286.995
286.573
286.076
285.528
284.945
284.301
283.445
282.114
280.263
288.194
288.278
288.352
288.413
288.459
288.495
288.525
288.551
288.573
288.59
288.603
288.609
288.61
288.604
288.591
288.57
288.543
288.508
288.464
288.406
288.333
288.242
288.13
287.986
287.796
287.54
287.196
286.755
286.227
285.646
285.039
284.389
283.533
282.197
280.342
288.197
288.287
288.367
288.429
288.474
288.51
288.541
288.568
288.591
288.609
288.623
288.631
288.634
288.631
288.623
288.608
288.588
288.564
288.535
288.498
288.45
288.387
288.302
288.182
288.013
287.767
287.421
286.969
286.421
285.821
285.196
284.534
283.671
282.325
280.462
288.205
288.311
288.402
288.469
288.516
288.552
288.584
288.611
288.634
288.653
288.667
288.677
288.682
288.683
288.678
288.669
288.656
288.641
288.622
288.599
288.564
288.513
288.435
288.315
288.119
287.84
287.484
287.056
286.559
285.977
285.349
284.683
283.821
282.47
280.598
288.213
288.335
288.438
288.513
288.563
288.602
288.634
288.662
288.685
288.704
288.718
288.729
288.735
288.738
288.736
288.732
288.724
288.713
288.698
288.676
288.64
288.581
288.487
288.335
288.122
287.839
287.483
287.059
286.572
286.031
285.432
284.776
283.921
282.578
280.698
288.221
288.355
288.469
288.551
288.606
288.648
288.683
288.712
288.735
288.754
288.769
288.78
288.787
288.791
288.791
288.788
288.781
288.769
288.75
288.721
288.676
288.604
288.491
288.327
288.099
287.806
287.456
287.046
286.573
286.038
285.458
284.814
283.958
282.621
280.75
288.227
288.374
288.498
288.587
288.647
288.694
288.732
288.764
288.79
288.811
288.826
288.837
288.844
288.848
288.847
288.842
288.832
288.814
288.788
288.749
288.694
288.614
288.492
288.317
288.087
287.809
287.483
287.1
286.646
286.121
285.545
284.904
284.047
282.715
280.865
288.233
288.394
288.528
288.621
288.686
288.739
288.783
288.819
288.849
288.872
288.89
288.903
288.91
288.912
288.91
288.901
288.885
288.86
288.826
288.779
288.72
288.642
288.531
288.379
288.192
287.976
287.72
287.4
286.983
286.456
285.851
285.19
284.333
283.009
281.166
288.239
288.41
288.553
288.65
288.719
288.777
288.827
288.868
288.903
288.931
288.952
288.968
288.977
288.979
288.976
288.965
288.945
288.917
288.88
288.833
288.78
288.718
288.643
288.552
288.446
288.321
288.158
287.916
287.546
287.008
286.339
285.617
284.73
283.394
281.539
288.242
288.42
288.57
288.671
288.745
288.808
288.863
288.909
288.948
288.98
289.005
289.024
289.036
289.041
289.039
289.029
289.011
288.985
288.952
288.914
288.874
288.835
288.795
288.752
288.703
288.638
288.541
288.363
288.038
287.506
286.771
285.959
285.028
283.705
281.828
288.243
288.422
288.576
288.682
288.762
288.831
288.891
288.943
288.986
289.022
289.051
289.074
289.089
289.097
289.098
289.092
289.08
289.061
289.036
289.009
288.983
288.959
288.935
288.907
288.869
288.805
288.677
288.466
288.127
287.602
286.867
286.012
285.07
283.787
281.882
288.243
288.423
288.578
288.688
288.773
288.848
288.914
288.97
289.019
289.06
289.094
289.12
289.139
289.151
289.156
289.155
289.148
289.136
289.12
289.102
289.083
289.064
289.039
289.002
288.935
288.828
288.67
288.429
288.056
287.514
286.797
285.966
285.043
283.768
281.848
288.245
288.427
288.587
288.701
288.79
288.868
288.938
288.999
289.052
289.097
289.135
289.165
289.188
289.204
289.213
289.216
289.213
289.206
289.195
289.181
289.163
289.138
289.099
289.031
288.93
288.779
288.545
288.192
287.697
287.069
286.344
285.579
284.695
283.4
281.477
288.248
288.437
288.602
288.721
288.813
288.895
288.968
289.033
289.09
289.139
289.18
289.213
289.239
289.258
289.269
289.275
289.274
289.269
289.257
289.24
289.215
289.177
289.114
289.018
288.869
288.637
288.29
287.813
287.215
286.524
285.783
285.027
284.141
282.836
280.926
288.252
288.449
288.622
288.746
288.842
288.928
289.006
289.076
289.136
289.187
289.23
289.264
289.291
289.311
289.323
289.329
289.328
289.32
289.304
289.28
289.244
289.192
289.11
288.981
288.782
288.484
288.071
287.55
286.935
286.247
285.515
284.768
283.881
282.57
280.685
288.258
288.466
288.647
288.776
288.875
288.964
289.05
289.129
289.194
289.244
289.285
289.318
289.344
289.362
289.373
289.376
289.372
289.36
289.339
289.308
289.263
289.2
289.105
288.955
288.725
288.399
287.976
287.462
286.863
286.191
285.471
284.732
283.848
282.535
280.659
288.265
288.485
288.676
288.812
288.915
289.011
289.104
289.186
289.251
289.299
289.337
289.367
289.39
289.406
289.414
289.415
289.408
289.392
289.367
289.33
289.279
289.208
289.101
288.93
288.672
288.319
287.878
287.359
286.769
286.116
285.417
284.692
283.814
282.504
280.635
288.269
288.498
288.698
288.841
288.951
289.054
289.153
289.236
289.3
289.346
289.381
289.408
289.429
289.442
289.448
289.446
289.437
289.418
289.389
289.347
289.289
289.209
289.087
288.889
288.599
288.226
287.784
287.281
286.714
286.081
285.401
284.69
283.819
282.507
280.643
288.271
288.503
288.706
288.855
288.973
289.084
289.187
289.273
289.338
289.384
289.418
289.445
289.464
289.475
289.48
289.476
289.464
289.443
289.409
289.362
289.298
289.212
289.081
288.874
288.586
288.234
287.83
287.369
286.836
286.221
285.546
284.839
283.967
282.649
280.791
288.272
288.504
288.708
288.862
288.987
289.107
289.216
289.305
289.373
289.421
289.455
289.481
289.499
289.51
289.514
289.509
289.495
289.471
289.436
289.386