/*--------------------------------*- C++ -*----------------------------------*\
| =========                 |                                                 |
| \\      /  F ield         | OpenFOAM: The Open Source CFD Toolbox           |
|  \\    /   O peration     | Version:  v1906                                 |
|   \\  /    A nd           | Web:      www.OpenFOAM.com                      |
|    \\/     M anipulation  |                                                 |
\*---------------------------------------------------------------------------*/
FoamFile
{
    version     2.0;
    format      ascii;
    class       volVectorField;
    location    "950";
    object      U;
}
// * * * * * * * * * * * * * * * * * * * * * * * * * * * * * * * * * * * * * //

dimensions      [0 1 -1 0 0 0 0];


internalField   nonuniform List<vector> 
78750
(
(-0.00222242 0.0179101 -0.00462972)
(-0.00670823 0.0192236 -0.0074585)
(-0.01145 0.0141887 -0.00654132)
(-0.0136522 0.0123067 -0.00483497)
(-0.0161032 0.0105396 -0.00199836)
(-0.017685 0.00955375 -0.000251344)
(-0.0191832 0.00882762 0.00115756)
(-0.0204482 0.00817265 0.00231081)
(-0.0215694 0.00751278 0.00322268)
(-0.0225316 0.00682669 0.00387165)
(-0.0233571 0.00611333 0.00426601)
(-0.0240447 0.00536733 0.00441617)
(-0.0245924 0.00453448 0.0043576)
(-0.0250304 0.00364103 0.00415525)
(-0.0253725 0.00292689 0.0038578)
(-0.0255309 0.00241219 0.00344106)
(-0.0256608 0.00158153 0.00270422)
(-0.0257727 0.000694798 0.00191038)
(-0.025706 0.000130015 0.00115314)
(-0.0257153 -0.00115612 -0.000253617)
(-0.0257493 -0.00200367 -0.00106499)
(-0.0259164 -0.00299048 -0.0020153)
(-0.0262269 -0.00409663 -0.0029503)
(-0.0266505 -0.00536056 -0.00381871)
(-0.0270761 -0.00671186 -0.00454474)
(-0.0273731 -0.00818415 -0.00512076)
(-0.0275252 -0.0100989 -0.00553255)
(-0.0271129 -0.0113054 -0.00561961)
(-0.0257414 -0.0141399 -0.00581292)
(-0.0240214 -0.0168439 -0.00612836)
(-0.0207744 -0.0199732 -0.00603908)
(-0.0162003 -0.0229317 -0.00555176)
(-0.0113662 -0.0226073 -0.00571915)
(-0.00569928 -0.0198434 -0.00500713)
(-0.00128615 -0.0107541 -0.00296597)
(-0.000242809 0.0387654 -0.00321467)
(-0.00228792 0.0466318 -0.00645518)
(-0.00450627 0.0350726 -0.00726041)
(-0.0057967 0.0226014 -0.0067556)
(-0.00617381 0.0146809 -0.00595913)
(-0.00582236 0.01034 -0.00514256)
(-0.00512171 0.00734234 -0.00458077)
(-0.00420847 0.00515818 -0.00397817)
(-0.0031138 0.0033337 -0.00350165)
(-0.00196626 0.00189634 -0.00301268)
(-0.000800971 0.000787359 -0.00248223)
(0.000339719 -4.94263e-05 -0.00191236)
(0.00143257 -0.000653227 -0.00131137)
(0.00247188 -0.00107671 -0.000665716)
(0.00342185 -0.00135942 7.39531e-05)
(0.00427437 -0.00147072 0.000942638)
(0.00504779 -0.00132987 0.00201671)
(0.00568392 -0.000770181 0.00342115)
(0.00615896 0.000333046 0.00521958)
(0.00650963 0.00216589 0.00747238)
(0.00661949 0.00491511 0.0101767)
(0.00660739 0.00812067 0.0126877)
(0.00616681 0.0114093 0.0144954)
(0.00545963 0.0139826 0.0153364)
(0.00435457 0.0149302 0.0151164)
(0.00290204 0.0140782 0.0140014)
(0.00117051 0.0109119 0.0118933)
(-0.000912224 0.00418875 0.00888575)
(-0.00311776 -0.00462803 0.00622599)
(-0.00461988 -0.0151076 0.00445924)
(-0.00569814 -0.0268017 0.00336214)
(-0.00592875 -0.0382854 0.00273073)
(-0.00464477 -0.0470948 0.00297657)
(-0.00284889 -0.0479023 0.00266409)
(-0.000562305 -0.0286501 0.000929882)
(8.79298e-05 0.0415175 -0.00315892)
(-0.000523562 0.0553167 -0.007148)
(-0.0017322 0.0447594 -0.00920305)
(-0.00291919 0.0279018 -0.0100726)
(-0.00369909 0.0142138 -0.0103345)
(-0.00368437 0.00477188 -0.0108027)
(-0.00336444 -0.000641798 -0.0107806)
(-0.00267421 -0.00495428 -0.0105663)
(-0.00188688 -0.0076152 -0.0102018)
(-0.00102301 -0.00935841 -0.00972795)
(-0.000106425 -0.0105375 -0.0091688)
(0.000814205 -0.0113753 -0.00862683)
(0.001705 -0.011947 -0.00807737)
(0.00253834 -0.0123102 -0.00750696)
(0.00339294 -0.0125067 -0.00691169)
(0.0040902 -0.0124727 -0.00638498)
(0.00478296 -0.0122018 -0.0057143)
(0.00536135 -0.0117835 -0.0050241)
(0.00586906 -0.0112206 -0.00427527)
(0.006316 -0.0105214 -0.00340964)
(0.00671106 -0.00967815 -0.00238381)
(0.00702278 -0.00801722 -0.000645035)
(0.00726363 -0.0052839 0.00190388)
(0.00749343 -0.00162243 0.00452595)
(0.00743462 0.00176577 0.00615991)
(0.00708339 0.00629258 0.00766222)
(0.00635243 0.00953527 0.00807847)
(0.00549239 0.0100629 0.00771901)
(0.00401173 0.00755108 0.00639367)
(0.00250211 -0.00171593 0.00492987)
(0.00126297 -0.0156849 0.0044134)
(0.000254677 -0.0342152 0.00501631)
(3.29126e-05 -0.0483382 0.00564059)
(-0.000270288 -0.051818 0.00496967)
(-0.00012915 -0.0333038 0.00225629)
(0.000158265 0.0430053 -0.0026099)
(-6.51716e-05 0.0634653 -0.0067714)
(-0.000839749 0.0564945 -0.00933346)
(-0.00175318 0.0402191 -0.0107034)
(-0.00248134 0.0243363 -0.0112026)
(-0.00282066 0.0121287 -0.0111812)
(-0.00273733 0.00415738 -0.0106589)
(-0.0024036 -0.000945208 -0.00997023)
(-0.00195501 -0.00411201 -0.00911923)
(-0.00136601 -0.00663611 -0.00811129)
(-0.000731339 -0.00847082 -0.00713335)
(-3.4106e-05 -0.00945037 -0.00654488)
(0.000660537 -0.0100363 -0.00592282)
(0.00137039 -0.0103621 -0.00524642)
(0.001957 -0.0104701 -0.00451498)
(0.00248089 -0.0102484 -0.00377751)
(0.00288872 -0.00968436 -0.00320121)
(0.00322589 -0.00873681 -0.00281314)
(0.00342299 -0.00745376 -0.002432)
(0.00346787 -0.0055653 -0.00198709)
(0.00323882 -0.00295987 -0.00135784)
(0.00272581 0.000336481 -0.000483537)
(0.0019452 0.00354705 0.00059318)
(0.000793956 0.00740574 0.00215423)
(-0.000202066 0.0107455 0.00363006)
(-0.00137464 0.0134563 0.00449934)
(-0.00213539 0.0146072 0.00460806)
(-0.00270241 0.0130514 0.00441562)
(-0.00256682 0.00671255 0.00474249)
(-0.00222113 -0.0049738 0.0060779)
(-0.00138466 -0.0222471 0.00840028)
(-0.000729595 -0.0406904 0.0108009)
(-0.000443461 -0.0537626 0.0117109)
(-0.000263051 -0.056303 0.0102151)
(-2.45589e-05 -0.0358135 0.00467389)
(8.81571e-05 0.0436395 -0.00225852)
(-0.000114119 0.0681778 -0.00639269)
(-0.000709134 0.063329 -0.0091138)
(-0.00147331 0.0471441 -0.0104898)
(-0.00220127 0.0296634 -0.0105749)
(-0.00271309 0.0154356 -0.00962321)
(-0.00288875 0.00519847 -0.00797722)
(-0.00285748 -0.00127501 -0.00623108)
(-0.00267915 -0.00644341 -0.00408752)
(-0.00236947 -0.00982689 -0.00233266)
(-0.00200745 -0.0120105 -0.00107474)
(-0.00165891 -0.0136159 5.30922e-05)
(-0.0012953 -0.0144722 0.000992364)
(-0.00105422 -0.0145958 0.00172219)
(-0.000805193 -0.0141406 0.00186351)
(-0.000782057 -0.0132792 0.00205598)
(-0.000906877 -0.0121756 0.00212491)
(-0.00125335 -0.0109504 0.00218116)
(-0.00201738 -0.00916988 0.00222853)
(-0.00323046 -0.00628693 0.00228719)
(-0.00469757 -0.00242634 0.00249672)
(-0.00645064 0.00270005 0.00292506)
(-0.00786698 0.00772656 0.00330736)
(-0.00929366 0.0124444 0.00365813)
(-0.0102385 0.016124 0.00399801)
(-0.0105074 0.0171569 0.00453889)
(-0.0103725 0.0152267 0.00579835)
(-0.00893604 0.0082529 0.00762107)
(-0.00695722 -0.00231871 0.00982484)
(-0.00439438 -0.0212198 0.0133117)
(-0.00228583 -0.0391581 0.0157126)
(-0.000855471 -0.0543478 0.0167275)
(-0.000201319 -0.0632207 0.0160731)
(0.00010234 -0.0632429 0.0133215)
(0.000224416 -0.0388958 0.00617552)
(0.000133245 0.0444719 -0.00181444)
(0.000107321 0.0733478 -0.0056669)
(-0.000282377 0.071653 -0.00836562)
(-0.000907204 0.0572254 -0.00966415)
(-0.00161764 0.0394266 -0.00940889)
(-0.00215345 0.0235811 -0.00777019)
(-0.00247792 0.0110669 -0.00520823)
(-0.00263272 0.00276732 -0.00234037)
(-0.00270037 -0.00334068 0.000220802)
(-0.00274645 -0.00811781 0.00268074)
(-0.00284217 -0.0109436 0.00444285)
(-0.00307831 -0.0124796 0.00584452)
(-0.00340742 -0.0130119 0.00655633)
(-0.0040167 -0.012633 0.00685605)
(-0.00489726 -0.0115057 0.00701441)
(-0.0061862 -0.00940467 0.00682874)
(-0.00819823 -0.00589555 0.00668951)
(-0.0103503 -0.00145423 0.0066255)
(-0.0131346 0.00546957 0.00626554)
(-0.0155756 0.0112972 0.00562958)
(-0.0179344 0.0156801 0.0050989)
(-0.019948 0.0188104 0.00507041)
(-0.0211836 0.0204917 0.00575064)
(-0.0215461 0.0199376 0.0070364)
(-0.0213375 0.0157608 0.00964663)
(-0.0189802 0.00704237 0.0119666)
(-0.0163515 -0.0023905 0.0135403)
(-0.0122309 -0.0223185 0.0160892)
(-0.00866346 -0.0390998 0.0175148)
(-0.00551359 -0.0531397 0.0179806)
(-0.00312473 -0.064068 0.0176638)
(-0.00147777 -0.071277 0.0166789)
(-0.000454562 -0.074081 0.014934)
(0.000108533 -0.0691941 0.0117154)
(0.000205526 -0.039462 0.00545207)
(0.000100854 0.0443253 -0.00160691)
(0.000130334 0.0759478 -0.00500801)
(-8.90255e-05 0.0766991 -0.0073579)
(-0.000546653 0.0638136 -0.0082958)
(-0.00117119 0.0456331 -0.00748958)
(-0.00175762 0.028165 -0.00507098)
(-0.00227442 0.0136853 -0.0016376)
(-0.00266223 0.00387131 0.0015797)
(-0.00311269 -0.00390688 0.00455403)
(-0.00371889 -0.00827936 0.00647018)
(-0.00454625 -0.0103384 0.00771329)
(-0.00574932 -0.0108124 0.0085732)
(-0.00732537 -0.00969183 0.00913657)
(-0.0094409 -0.00660135 0.00949298)
(-0.0120978 -0.000822563 0.00956014)
(-0.0150487 0.00696943 0.00905647)
(-0.0178715 0.0139697 0.00823164)
(-0.0206097 0.0191212 0.00766781)
(-0.0230692 0.0226454 0.00762671)
(-0.0249044 0.0241742 0.00814458)
(-0.0258284 0.0240625 0.00912321)
(-0.0262926 0.0213185 0.0112)
(-0.0256943 0.0145345 0.01322)
(-0.02356 0.00417711 0.0142549)
(-0.0211312 -0.00662277 0.014479)
(-0.0168803 -0.0305254 0.0140833)
(-0.0136893 -0.04571 0.0130897)
(-0.010582 -0.0576613 0.01169)
(-0.00817196 -0.0676049 0.00997197)
(-0.00627591 -0.0757825 0.00821304)
(-0.00456693 -0.0817966 0.00667378)
(-0.00308498 -0.0849674 0.00530916)
(-0.00156879 -0.0848268 0.00374413)
(-0.000364117 -0.0754034 0.00250287)
(0.000141409 -0.0404491 0.00170916)
(8.83311e-05 0.0442789 -0.0011421)
(0.000154445 0.0781197 -0.00399808)
(5.21994e-05 0.0810793 -0.00595345)
(-0.00024508 0.0700859 -0.00655985)
(-0.0007361 0.0523386 -0.00538576)
(-0.00127893 0.0343007 -0.0025382)
(-0.00188238 0.018866 0.0012969)
(-0.00256957 0.00780721 0.0049138)
(-0.00355085 0.00165522 0.00755699)
(-0.00496442 -0.00136754 0.00940484)
(-0.00659669 -0.00120547 0.0105444)
(-0.00865351 0.0020481 0.0112659)
(-0.0111626 0.00788592 0.0114418)
(-0.0138501 0.0143102 0.011073)
(-0.016564 0.020218 0.0105575)
(-0.019014 0.0250894 0.0102662)
(-0.0209475 0.0279156 0.010351)
(-0.0225418 0.028987 0.0108581)
(-0.0235103 0.0284584 0.0114725)
(-0.0242115 0.0252117 0.0125339)
(-0.0240294 0.018261 0.0130608)
(-0.0228873 0.00649721 0.0124881)
(-0.0214723 -0.0050999 0.0104628)
(-0.0184036 -0.0281958 0.00561132)
(-0.0161596 -0.0426182 0.00305157)
(-0.0141064 -0.0535998 0.00068681)
(-0.0126865 -0.0632771 -0.00150964)
(-0.0114092 -0.0724538 -0.00342032)
(-0.0100289 -0.0807049 -0.00481321)
(-0.00852453 -0.0874658 -0.00559971)
(-0.00674014 -0.0923023 -0.00584119)
(-0.00499415 -0.0945678 -0.00583101)
(-0.00302764 -0.0933694 -0.00537204)
(-0.00125948 -0.0815659 -0.00377655)
(-6.41843e-05 -0.0424333 -0.000963351)
(4.06545e-05 0.0440782 -0.000697901)
(4.54153e-05 0.0793844 -0.00275125)
(-5.33402e-05 0.0837095 -0.00409975)
(-0.000275837 0.0738849 -0.00423092)
(-0.000653098 0.0563887 -0.00260784)
(-0.00112703 0.038095 0.000584181)
(-0.0017523 0.0227075 0.00441049)
(-0.00274949 0.012468 0.00768499)
(-0.00397818 0.00839638 0.00955168)
(-0.00549987 0.00750458 0.0108596)
(-0.00722479 0.009279 0.011734)
(-0.00914443 0.0134389 0.0122165)
(-0.0110327 0.0191411 0.0123126)
(-0.0127584 0.0245486 0.0121846)
(-0.0142645 0.0285742 0.0120786)
(-0.0155146 0.0309168 0.012137)
(-0.016375 0.0314846 0.012255)
(-0.0173063 0.03039 0.0122991)
(-0.0177063 0.0266951 0.0120056)
(-0.017581 0.0184944 0.010521)
(-0.0169 0.00529309 0.00711599)
(-0.0162449 -0.00606253 0.00349221)
(-0.0148189 -0.0248384 -0.00235155)
(-0.0141269 -0.0374889 -0.005282)
(-0.0137538 -0.0486683 -0.00741527)
(-0.0133589 -0.0595018 -0.00842648)
(-0.0126379 -0.0703823 -0.00872314)
(-0.0116095 -0.0806299 -0.00844025)
(-0.0102999 -0.0895677 -0.00776909)
(-0.00875222 -0.0969216 -0.00693319)
(-0.00690751 -0.102324 -0.00603623)
(-0.00512873 -0.104986 -0.00508851)
(-0.00318205 -0.103955 -0.00373134)
(-0.00140817 -0.0910566 -0.00222628)
(-0.000110527 -0.0469864 -0.00067087)
(5.25487e-05 0.0439534 -0.000396581)
(7.75417e-05 0.0807697 -0.00157957)
(-5.04539e-06 0.086181 -0.00226654)
(-0.000235927 0.0771862 -0.00196678)
(-0.000590042 0.0599823 -0.000170995)
(-0.00105154 0.0417932 0.00276463)
(-0.0016816 0.0269548 0.0058621)
(-0.00268231 0.0177535 0.00823765)
(-0.00369566 0.0145256 0.00953488)
(-0.00483655 0.014136 0.0105556)
(-0.00602045 0.0161153 0.0113537)
(-0.00716635 0.0201013 0.0118755)
(-0.00823136 0.0249159 0.0121441)
(-0.00912217 0.0289475 0.0122481)
(-0.00990134 0.0314756 0.0122829)
(-0.0105749 0.0323909 0.0122225)
(-0.0111299 0.0318821 0.0118555)
(-0.011438 0.0289414 0.0107548)
(-0.0115328 0.0222771 0.00833448)
(-0.0113071 0.0118896 0.0046246)
(-0.0112104 0.00230981 0.00132157)
(-0.0109589 -0.0126064 -0.00303922)
(-0.0109043 -0.0259399 -0.00539896)
(-0.0110623 -0.0384685 -0.00633519)
(-0.01096 -0.0512194 -0.00624627)
(-0.010598 -0.0641729 -0.00558362)
(-0.00997645 -0.0767417 -0.00470458)
(-0.00912144 -0.0882584 -0.0038618)
(-0.00804428 -0.0982271 -0.00318787)
(-0.00678703 -0.106331 -0.00271482)
(-0.00533688 -0.112135 -0.00241293)
(-0.00392217 -0.114888 -0.00228441)
(-0.00241337 -0.113405 -0.00226855)
(-0.00106851 -0.099098 -0.00200574)
(-0.00012116 -0.051125 -0.000836361)
(8.08597e-05 0.0433866 -0.000364689)
(0.000260102 0.0813077 -0.00111298)
(0.000211931 0.0880571 -0.0014224)
(-1.6283e-07 0.0800253 -0.00094493)
(-0.00045902 0.06303 0.000692765)
(-0.00106849 0.0447761 0.00306095)
(-0.00180018 0.0299967 0.00539676)
(-0.00266168 0.0207946 0.00717751)
(-0.00343473 0.0172096 0.00825976)
(-0.00414418 0.016571 0.00905022)
(-0.00484713 0.0180612 0.00979922)
(-0.00547123 0.0210718 0.0105451)
(-0.00599104 0.0249681 0.0111231)
(-0.00639429 0.0283666 0.0114037)
(-0.0068088 0.0304869 0.0113816)
(-0.00710335 0.0309484 0.0109919)
(-0.00740246 0.0296287 0.0100176)
(-0.00761133 0.025971 0.00824192)
(-0.00768087 0.0190302 0.00533438)
(-0.00775361 0.00950766 0.00200737)
(-0.00784826 0.000288473 -0.000472979)
(-0.0080044 -0.0132378 -0.00304006)
(-0.0082123 -0.0267678 -0.00444175)
(-0.00820775 -0.0405099 -0.00515066)
(-0.00809662 -0.0544827 -0.00551776)
(-0.00782486 -0.0683259 -0.00556847)
(-0.00738674 -0.0815231 -0.00580582)
(-0.00679249 -0.0935455 -0.006065)
(-0.00602703 -0.103974 -0.00628715)
(-0.00511504 -0.11238 -0.00644228)
(-0.00405105 -0.118258 -0.00652634)
(-0.00298599 -0.120821 -0.00660054)
(-0.00186191 -0.118701 -0.00646812)
(-0.000830644 -0.103406 -0.00526919)
(-0.000123723 -0.0535305 -0.0021796)
(0.000179849 0.0420652 -0.000517374)
(0.000499159 0.0810326 -0.00115695)
(0.000691257 0.0891757 -0.00137982)
(0.000582006 0.0830926 -0.00106587)
(0.000188278 0.067499 0.000134144)
(-0.000498746 0.0495741 0.0019542)
(-0.00126658 0.0342461 0.00384086)
(-0.00202561 0.0239219 0.00542668)
(-0.00265916 0.0190591 0.00654)
(-0.00319376 0.0176662 0.00736091)
(-0.00374735 0.0183764 0.00819468)
(-0.00423455 0.0206776 0.00895532)
(-0.00468817 0.0238348 0.00953639)
(-0.00511791 0.0267407 0.00986242)
(-0.00554555 0.0285738 0.0098393)
(-0.00592693 0.0288828 0.00939453)
(-0.00629188 0.027498 0.00833079)
(-0.00659834 0.0239333 0.0064876)
(-0.00684235 0.0173607 0.00365445)
(-0.007071 0.00842675 0.000541395)
(-0.00726888 -0.000559756 -0.00194013)
(-0.00749484 -0.0137937 -0.00480643)
(-0.007647 -0.0275309 -0.00684392)
(-0.00770104 -0.0414497 -0.00811697)
(-0.00765413 -0.0554633 -0.0090097)
(-0.0074856 -0.0694473 -0.00981949)
(-0.00707582 -0.0827829 -0.0102223)
(-0.00648939 -0.0950576 -0.0102658)
(-0.00568321 -0.105757 -0.0100223)
(-0.00472195 -0.114336 -0.00955871)
(-0.00363116 -0.120234 -0.00890664)
(-0.00259671 -0.12277 -0.00807524)
(-0.00157629 -0.120663 -0.00676091)
(-0.00065741 -0.105349 -0.00475218)
(-6.90863e-05 -0.0545896 -0.00194633)
(0.00017177 0.0401441 -0.000613626)
(0.000680694 0.0792026 -0.00122523)
(0.000981702 0.0891066 -0.00138246)
(0.00114113 0.0849041 -0.00109111)
(0.000939964 0.0712229 -0.000181923)
(0.000394474 0.0540568 0.00122584)
(-0.000282585 0.0382742 0.00274702)
(-0.000970854 0.0267834 0.0041034)
(-0.00160089 0.0207467 0.00515297)
(-0.00217898 0.0187403 0.00596443)
(-0.00280621 0.0190696 0.00673655)
(-0.00341027 0.0211217 0.00736104)
(-0.00403302 0.0240343 0.00783227)
(-0.00465702 0.0267584 0.00801573)
(-0.00526607 0.0283719 0.00782285)
(-0.00581914 0.0284988 0.0071912)
(-0.00634476 0.0268729 0.00585813)
(-0.00677593 0.0230508 0.00364701)
(-0.0071268 0.0164689 0.00054187)
(-0.00745325 0.00780242 -0.00250006)
(-0.00771367 -0.000829824 -0.00470787)
(-0.00799407 -0.0135491 -0.00701254)
(-0.00822091 -0.0270876 -0.00849284)
(-0.0083802 -0.0409166 -0.00928803)
(-0.00841558 -0.0552001 -0.00955549)
(-0.00823585 -0.0698759 -0.00942352)
(-0.00785948 -0.0844446 -0.0088886)
(-0.00720255 -0.0978219 -0.00811154)
(-0.00626244 -0.109478 -0.00719803)
(-0.005143 -0.11864 -0.00630264)
(-0.00389526 -0.124755 -0.00546573)
(-0.00274105 -0.127317 -0.00467226)
(-0.00162227 -0.12508 -0.00373284)
(-0.000651167 -0.108998 -0.00267311)
(-4.19477e-05 -0.0560196 -0.00124875)
(0.00015455 0.0381063 -0.000685257)
(0.000730315 0.0766254 -0.00130094)
(0.00119693 0.0878072 -0.0013909)
(0.00153706 0.0850301 -0.00107515)
(0.00153939 0.0735518 -0.000347593)
(0.00123385 0.0575347 0.000738062)
(0.000721752 0.0418816 0.00187367)
(0.000121828 0.0299159 0.00288711)
(-0.000506629 0.0233289 0.00372851)
(-0.00112947 0.0210374 0.00444359)
(-0.0018214 0.0211695 0.00519436)
(-0.00253517 0.022996 0.00590348)
(-0.00326774 0.0256781 0.00642671)
(-0.00402251 0.0281518 0.00656382)
(-0.0046797 0.0294309 0.00617548)
(-0.00531069 0.0293624 0.00506772)
(-0.00582844 0.0275874 0.00320166)
(-0.00624951 0.0236594 0.000578052)
(-0.00660269 0.0172621 -0.00242881)
(-0.00692521 0.00896559 -0.00528546)
(-0.00716792 0.000566026 -0.00727328)
(-0.00742206 -0.0116527 -0.00907901)
(-0.00765134 -0.0250039 -0.0100143)
(-0.00781551 -0.0391223 -0.0102439)
(-0.00784497 -0.0541042 -0.00997209)
(-0.00768718 -0.069749 -0.00933091)
(-0.00734724 -0.0853338 -0.00841384)
(-0.00672726 -0.100399 -0.0072312)
(-0.00589813 -0.113484 -0.00623223)
(-0.00488172 -0.123565 -0.0054389)
(-0.00375213 -0.130116 -0.00481141)
(-0.00270644 -0.132739 -0.00431635)
(-0.00169789 -0.130216 -0.00375911)
(-0.000793935 -0.113271 -0.00294515)
(-0.000117266 -0.05807 -0.00146446)
(0.000132618 0.0359334 -0.000648018)
(0.000755371 0.0735528 -0.00119414)
(0.00138191 0.0857298 -0.00121802)
(0.00180189 0.0844499 -0.000924725)
(0.0020891 0.0745153 -0.00036042)
(0.00193842 0.0598372 0.000399857)
(0.0015891 0.0447795 0.00116807)
(0.00108135 0.0327859 0.00188092)
(0.000470647 0.0259939 0.00254187)
(-0.000190849 0.0236143 0.00315135)
(-0.000918598 0.023827 0.00373361)
(-0.00170716 0.0256328 0.00422902)
(-0.00250771 0.0280615 0.00445813)
(-0.00330168 0.030092 0.00422485)
(-0.003984 0.0309272 0.0034546)
(-0.00459619 0.0304013 0.00201553)
(-0.00506815 0.0282687 2.0164e-06)
(-0.0054666 0.0241414 -0.00254514)
(-0.00577744 0.0179128 -0.00527799)
(-0.00604774 0.0100178 -0.0075646)
(-0.00624861 0.00187402 -0.00905005)
(-0.00646085 -0.00960556 -0.0102634)
(-0.00666011 -0.0225179 -0.0108142)
(-0.00680841 -0.0366723 -0.0108606)
(-0.0068467 -0.052107 -0.0104954)
(-0.00672584 -0.0684152 -0.00971161)
(-0.00639802 -0.0850735 -0.00860231)
(-0.00582806 -0.101177 -0.00736404)
(-0.00502455 -0.115363 -0.00620982)
(-0.00407033 -0.126284 -0.00520318)
(-0.00305705 -0.133268 -0.00434087)
(-0.00216999 -0.136084 -0.003526)
(-0.00137284 -0.133684 -0.00253879)
(-0.000650161 -0.116792 -0.00156559)
(-8.76016e-05 -0.0601012 -0.000902608)
(9.87453e-05 0.0336728 -0.000454187)
(0.000708083 0.0698549 -0.000741885)
(0.00140309 0.082535 -0.000597684)
(0.00199899 0.0821806 -0.000310915)
(0.00238331 0.074313 1.95757e-06)
(0.00249615 0.061159 0.000346054)
(0.00231165 0.0470461 0.000776184)
(0.0019049 0.0356191 0.00123148)
(0.00127458 0.0292107 0.00175409)
(0.000520662 0.0270897 0.00228012)
(-0.00031723 0.0274332 0.00275196)
(-0.00122879 0.029174 0.00305937)
(-0.00212983 0.0312903 0.0030191)
(-0.00298382 0.0328437 0.00249447)
(-0.00370317 0.0332314 0.00150379)
(-0.00433747 0.0322867 -7.30169e-05)
(-0.00484806 0.0298175 -0.00212583)
(-0.00527412 0.0255199 -0.00457664)
(-0.00560783 0.0194019 -0.00698369)
(-0.00589442 0.0118048 -0.00888664)
(-0.0060945 0.00396217 -0.0100314)
(-0.00631876 -0.0069768 -0.0108246)
(-0.00655408 -0.0195708 -0.0110148)
(-0.00673009 -0.0337411 -0.0107018)
(-0.00682867 -0.0495708 -0.0098439)
(-0.00680351 -0.0666923 -0.00833794)
(-0.0065965 -0.0847773 -0.00628878)
(-0.00612095 -0.102724 -0.00395755)
(-0.00537211 -0.118488 -0.00220998)
(-0.00436699 -0.13032 -0.000859115)
(-0.00327205 -0.1376 7.01092e-05)
(-0.00231068 -0.140475 0.000808743)
(-0.0014353 -0.138129 0.00150799)
(-0.000644457 -0.120875 0.00155974)
(-4.50868e-05 -0.0619147 0.000267153)
(4.96177e-05 0.031691 -0.000300091)
(0.000577617 0.0661802 -0.000462091)
(0.00125223 0.0787691 -0.000310384)
(0.00187287 0.0789413 -7.02989e-05)
(0.00234866 0.0725921 0.0001428)
(0.00261094 0.0608174 0.000397133)
(0.00259967 0.0481677 0.000686669)
(0.00223297 0.0381725 0.00115291)
(0.00155072 0.0329323 0.00173391)
(0.000711197 0.0314378 0.00224896)
(-0.000213813 0.032014 0.00258377)
(-0.00118429 0.0336202 0.0025876)
(-0.00211827 0.0352774 0.0021092)
(-0.00290354 0.0361556 0.00114345)
(-0.00358672 0.0359946 -0.000380261)
(-0.00412791 0.0345812 -0.00229659)
(-0.0045576 0.0317088 -0.00448417)
(-0.00487006 0.0272282 -0.00670286)
(-0.00509438 0.0212108 -0.00864011)
(-0.00526515 0.0139858 -0.0100629)
(-0.00534089 0.00589568 -0.0109079)
(-0.00540851 -0.00352604 -0.0113147)
(-0.00556631 -0.0159778 -0.0112599)
(-0.00573646 -0.0300775 -0.0106878)
(-0.00592025 -0.0459529 -0.00941845)
(-0.0060862 -0.0638219 -0.00739972)
(-0.00616567 -0.0834379 -0.00475218)
(-0.00587506 -0.103596 -0.00179974)
(-0.00557944 -0.12249 0.000965911)
(-0.00477689 -0.136513 0.00287201)
(-0.00380543 -0.144877 0.00388336)
(-0.00286392 -0.148133 0.00440734)
(-0.00195508 -0.145905 0.00465055)
(-0.00105912 -0.127816 0.00386163)
(-0.000147918 -0.0651565 0.0010945)
(3.15924e-05 0.0299713 -0.000144691)
(0.00047537 0.0629216 -0.000235018)
(0.00107601 0.07527 -0.000111407)
(0.00163276 0.0758408 7.27482e-05)
(0.00209016 0.070392 0.000239988)
(0.0023975 0.0600606 0.000462634)
(0.00237335 0.0490648 0.000815407)
(0.00197456 0.0408407 0.00134378)
(0.00126208 0.0368648 0.00186854)
(0.000425022 0.0358916 0.00220375)
(-0.000472666 0.0364767 0.00222914)
(-0.00136275 0.0376743 0.00179842)
(-0.00217131 0.038676 0.000837184)
(-0.00281816 0.0389141 -0.000526926)
(-0.00335588 0.0381443 -0.00236039)
(-0.00373712 0.0361815 -0.00441583)
(-0.00397049 0.032892 -0.00651424)
(-0.00406437 0.0282539 -0.00844303)
(-0.00404693 0.0223739 -0.0100229)
(-0.00395084 0.0153755 -0.011164)
(-0.00375942 0.00737416 -0.0118322)
(-0.0035491 -0.00113902 -0.0120243)
(-0.00339944 -0.0122102 -0.0118132)
(-0.00333056 -0.0252109 -0.010965)
(-0.00328062 -0.0402815 -0.00918336)
(-0.00318536 -0.058113 -0.00634995)
(-0.00308776 -0.0789825 -0.00262177)
(-0.00317836 -0.101768 0.00110692)
(-0.00297512 -0.123178 0.00451279)
(-0.00274241 -0.140369 0.00682434)
(-0.00233189 -0.151035 0.00801289)
(-0.00187528 -0.155567 0.00850312)
(-0.00135997 -0.154073 0.00853506)
(-0.000731941 -0.136326 0.00718104)
(-6.39164e-05 -0.0700898 0.00255485)
(2.51698e-05 0.0285358 3.23098e-05)
(0.00034914 0.0600619 -1.55695e-05)
(0.000802798 0.0721344 4.30426e-05)
(0.00121128 0.0730359 0.000149404)
(0.00155808 0.0683297 0.000284709)
(0.0016623 0.0595724 0.000549671)
(0.00157071 0.0501558 0.00102182)
(0.00101869 0.0436255 0.00155947)
(0.00026071 0.0406527 0.001965)
(-0.000588693 0.0399615 0.00208373)
(-0.00146815 0.040375 0.00178256)
(-0.00232037 0.0410905 0.000946221)
(-0.0030322 0.041418 -0.000323261)
(-0.00363835 0.0409828 -0.00208162)
(-0.00407815 0.0395298 -0.00407801)
(-0.00435264 0.0368995 -0.00612932)
(-0.00445152 0.0330339 -0.00805402)
(-0.00437599 0.0280054 -0.00969382)
(-0.00418614 0.021967 -0.0109471)
(-0.00385811 0.0150962 -0.0117439)
(-0.00344151 0.00750076 -0.0120762)
(-0.00299618 -0.000491692 -0.0119032)
(-0.00248222 -0.0107377 -0.011165)
(-0.00185971 -0.0233552 -0.00976072)
(-0.00119962 -0.0388205 -0.00738095)
(-0.00056853 -0.0575116 -0.00395395)
(7.63329e-05 -0.079008 0.000295278)
(0.000718048 -0.101815 0.00494279)
(0.00107721 -0.123748 0.00926333)
(0.000983155 -0.142286 0.0119711)
(0.000765904 -0.154836 0.0131123)
(0.000497689 -0.160804 0.0132512)
(0.000324782 -0.159883 0.0125819)
(-3.71656e-05 -0.141922 0.00991539)
(-8.11252e-05 -0.0742675 0.00410699)
(3.64581e-05 0.0275931 0.000107763)
(0.000217363 0.0580146 -0.000122875)
(0.000445325 0.0700606 -0.000302817)
(0.000699571 0.0715104 -0.000294871)
(0.000714112 0.0676829 -5.62e-05)
(0.000800635 0.0600271 0.000273677)
(0.000324379 0.0524386 0.000819936)
(-0.000344981 0.0472444 0.00140069)
(-0.00124523 0.044791 0.00173874)
(-0.00219245 0.0441163 0.00164528)
(-0.00320753 0.044215 0.000994417)
(-0.00410561 0.0443763 -0.000128016)
(-0.00495374 0.044069 -0.0018097)
(-0.00562578 0.0429258 -0.00375157)
(-0.00613215 0.0407247 -0.00575103)
(-0.00645053 0.0373762 -0.00762294)
(-0.00657323 0.0329335 -0.00920757)
(-0.00654716 0.0275515 -0.0103976)
(-0.00636796 0.0213731 -0.0111396)
(-0.00608009 0.0144739 -0.0114046)
(-0.0056466 0.00689974 -0.0111304)
(-0.00517524 -0.000981176 -0.0102931)
(-0.00448544 -0.0118594 -0.00845821)
(-0.00344764 -0.0256146 -0.00540972)
(-0.00204035 -0.0426514 -0.00119278)
(-0.000369875 -0.0627935 0.00375811)
(0.00126129 -0.0848864 0.0085802)
(0.00252198 -0.107222 0.0124065)
(0.00328701 -0.127912 0.014742)
(0.0034731 -0.14495 0.0157761)
(0.00308503 -0.156675 0.0157939)
(0.002434 -0.162221 0.0149712)
(0.00159721 -0.160554 0.0130239)
(0.000836198 -0.142153 0.00999122)
(0.000139165 -0.0745053 0.00444834)
(3.99661e-05 0.0274478 0.00028721)
(3.79608e-05 0.0575106 0.000178407)
(1.22173e-05 0.0696381 -6.51742e-05)
(-3.07786e-05 0.0715661 -0.00014733)
(-1.2671e-06 0.0681817 -6.29855e-05)
(-0.00041877 0.0622302 0.000555618)
(-0.00104911 0.0562204 0.00139632)
(-0.00198012 0.0521285 0.00209297)
(-0.00312471 0.0501581 0.00229573)
(-0.00431622 0.0495737 0.00187028)
(-0.00556761 0.0494963 0.000746477)
(-0.00672134 0.0492689 -0.000933688)
(-0.0077532 0.0483694 -0.00295023)
(-0.00861518 0.0464902 -0.00503304)
(-0.00929396 0.0435112 -0.00695677)
(-0.00979089 0.039454 -0.00855585)
(-0.0101389 0.0344539 -0.00972142)
(-0.0103551 0.0286992 -0.0103843)
(-0.010455 0.0223351 -0.0104715)
(-0.0105075 0.0153151 -0.00982782)
(-0.0103178 0.00728695 -0.00831155)
(-0.00995571 -0.00125929 -0.00583297)
(-0.00901471 -0.0160938 -0.000932646)
(-0.007309 -0.035021 0.00461707)
(-0.00522146 -0.0566489 0.00973115)
(-0.00292707 -0.0793645 0.0136106)
(-0.000721434 -0.101479 0.0159126)
(0.00108598 -0.121463 0.0167656)
(0.00226798 -0.138188 0.0165834)
(0.00277544 -0.150972 0.0157931)
(0.00273408 -0.159396 0.0146866)
(0.00236128 -0.163075 0.0133207)
(0.00181332 -0.160419 0.0115207)
(0.00109919 -0.140469 0.00808285)
(0.000290593 -0.0724649 0.00394993)
(3.64227e-05 0.028029 0.000299362)
(-0.000100281 0.0578781 0.000167612)
(-0.000333622 0.0700368 -9.72978e-05)
(-0.00051627 0.0723832 -8.36847e-05)
(-0.000877371 0.0703653 0.000369107)
(-0.00148342 0.0658947 0.00114846)
(-0.00241131 0.0613868 0.00196225)
(-0.00360294 0.0584109 0.00235338)
(-0.00497085 0.0570263 0.0020348)
(-0.00640161 0.0565668 0.000950349)
(-0.00779737 0.0562728 -0.000782971)
(-0.0090769 0.0555114 -0.00289172)
(-0.0101951 0.053896 -0.00505676)
(-0.0111361 0.0512792 -0.00701808)
(-0.0119124 0.0476802 -0.00859486)
(-0.0125561 0.0432347 -0.00966558)
(-0.0130757 0.0381355 -0.010138)
(-0.0135602 0.0325196 -0.00990866)
(-0.0140233 0.0262695 -0.00881048)
(-0.0143311 0.0186661 -0.00658848)
(-0.0142472 0.0082563 -0.00293141)
(-0.0138611 -0.00394657 0.00139214)
(-0.012716 -0.028079 0.00822465)
(-0.0108887 -0.0530189 0.0122036)
(-0.00867276 -0.0772648 0.0137857)
(-0.0064189 -0.100184 0.013703)
(-0.0043845 -0.120655 0.0127217)
(-0.00268645 -0.13771 0.011504)
(-0.0014372 -0.150863 0.0104091)
(-0.000607587 -0.160139 0.00946183)
(-9.03717e-05 -0.16569 0.00849091)
(0.000240909 -0.167195 0.00729575)
(0.000450159 -0.162308 0.00579518)
(0.000503292 -0.139657 0.00459712)
(0.000137338 -0.0704556 0.00222816)
(0.0001018 0.0289929 0.000155496)
(1.95998e-05 0.0598057 0.000154907)
(-0.000287122 0.0725876 6.60161e-05)
(-0.000599528 0.0755952 0.000259145)
(-0.00104673 0.0743928 0.000816405)
(-0.00174949 0.0713257 0.00155783)
(-0.0027591 0.068277 0.00206986)
(-0.00400023 0.0662977 0.00192185)
(-0.00536594 0.0653505 0.000945706)
(-0.00674002 0.0648555 -0.000768547)
(-0.00802857 0.0641559 -0.00293634)
(-0.00917529 0.0627803 -0.00519166)
(-0.0101612 0.0605279 -0.00722531)
(-0.0110006 0.057396 -0.00883467)
(-0.0117296 0.0534994 -0.00990372)
(-0.0123697 0.0490348 -0.0103037)
(-0.0129884 0.0441555 -0.00994129)
(-0.0136246 0.0387558 -0.00871996)
(-0.014172 0.0317455 -0.00631977)
(-0.0144883 0.0208493 -0.00250044)
(-0.0147132 0.00881097 0.000995547)
(-0.0145165 -0.0138666 0.00504278)
(-0.0132354 -0.0423115 0.00685103)
(-0.0118197 -0.0689358 0.00640681)
(-0.0103933 -0.0930662 0.00517132)
(-0.00895512 -0.115052 0.00352524)
(-0.0076501 -0.134132 0.0024381)
(-0.00643912 -0.14968 0.00196629)
(-0.00527621 -0.161469 0.00182953)
(-0.00427258 -0.169607 0.00173447)
(-0.00330495 -0.174172 0.00149411)
(-0.00240401 -0.174748 0.000979164)
(-0.00146363 -0.168511 0.000144216)
(-0.000556655 -0.142957 -0.000605453)
(3.16104e-05 -0.0704987 0.000194091)
(0.000144926 0.0290874 -7.69891e-05)
(0.000242406 0.0607508 0.000193838)
(3.98605e-05 0.0743146 0.00046147)
(-0.000251118 0.0782045 0.000875004)
(-0.000706864 0.0780486 0.00146013)
(-0.00138987 0.076348 0.00197325)
(-0.00231574 0.0745707 0.0020068)
(-0.00339741 0.0733746 0.00126582)
(-0.00452671 0.0726633 -0.000261667)
(-0.00560725 0.0719724 -0.00234736)
(-0.00657316 0.070834 -0.00462868)
(-0.00739786 0.0689796 -0.00675752)
(-0.00810093 0.0663549 -0.0084931)
(-0.00870942 0.0630384 -0.0096751)
(-0.00924347 0.0591799 -0.0102356)
(-0.00977235 0.0549415 -0.0101313)
(-0.0103192 0.0503278 -0.00932038)
(-0.0108514 0.044726 -0.00771262)