/*--------------------------------*- C++ -*----------------------------------*\
| =========                 |                                                 |
| \\      /  F ield         | OpenFOAM: The Open Source CFD Toolbox           |
|  \\    /   O peration     | Version:  v1906                                 |
|   \\  /    A nd           | Web:      www.OpenFOAM.com                      |
|    \\/     M anipulation  |                                                 |
\*---------------------------------------------------------------------------*/
FoamFile
{
    version     2.0;
    format      ascii;
    class       volScalarField;
    location    "1000";
    object      alphat;
}
// * * * * * * * * * * * * * * * * * * * * * * * * * * * * * * * * * * * * * //

dimensions      [1 -1 -1 0 0 0 0];


internalField   nonuniform List<scalar> 
78750
(
4.85503e-08
2.05729e-06
2.71666e-06
3.02536e-06
3.27076e-06
3.50006e-06
3.72467e-06
3.94364e-06
4.16458e-06
4.39008e-06
4.62299e-06
4.86474e-06
5.11614e-06
5.37753e-06
5.64902e-06
5.93036e-06
6.22059e-06
6.51787e-06
6.82143e-06
7.12989e-06
7.44057e-06
7.75083e-06
8.05749e-06
8.35691e-06
8.64621e-06
8.92425e-06
9.1645e-06
9.29804e-06
7.92687e-06
6.64136e-06
5.81267e-06
5.03273e-06
3.88589e-06
2.31725e-06
4.17131e-08
1.05971e-07
4.37427e-06
2.15494e-06
2.87527e-06
5.82935e-06
9.36236e-06
9.49244e-06
9.65452e-06
9.84832e-06
1.00725e-05
1.03275e-05
1.06182e-05
1.096e-05
1.1385e-05
1.19495e-05
1.27354e-05
1.38253e-05
1.53141e-05
1.72773e-05
1.6964e-05
1.73134e-05
1.91458e-05
2.3305e-05
3.07399e-05
3.73222e-05
2.94547e-05
1.74191e-05
1.41356e-05
1.4391e-05
1.5909e-05
1.82809e-05
2.01256e-05
1.62955e-05
5.09878e-06
1.16499e-07
1.31193e-07
6.66758e-06
1.90938e-06
1.59003e-06
2.10597e-06
3.42909e-06
6.00331e-06
5.99158e-06
6.19149e-06
6.58439e-06
7.17542e-06
7.97863e-06
9.01045e-06
1.0283e-05
1.17959e-05
1.35396e-05
1.58374e-05
1.85878e-05
2.16914e-05
2.50457e-05
2.85508e-05
3.21179e-05
3.55507e-05
3.88589e-05
2.34311e-05
1.64576e-05
1.45762e-05
1.48616e-05
1.59466e-05
1.76798e-05
2.03818e-05
2.37727e-05
2.20051e-05
5.96008e-06
1.49325e-07
1.43413e-07
4.86705e-06
2.3225e-06
1.47173e-06
1.58953e-06
2.36904e-06
4.32781e-06
5.78354e-06
6.19786e-06
6.86527e-06
7.87839e-06
9.39114e-06
1.14222e-05
1.39649e-05
1.70252e-05
2.0578e-05
2.4313e-05
2.81953e-05
3.2129e-05
3.60079e-05
3.9745e-05
4.10213e-05
2.89275e-05
1.72792e-05
1.40404e-05
1.5508e-05
1.73179e-05
1.91555e-05
2.12451e-05
2.37764e-05
2.68959e-05
2.84045e-05
2.08207e-05
5.65319e-06
1.58939e-07
1.48501e-07
4.15296e-06
2.46702e-06
1.40382e-06
1.43669e-06
2.16689e-06
4.33948e-06
8.92955e-06
1.09186e-05
1.32658e-05
1.58677e-05
1.86495e-05
2.16614e-05
2.49263e-05
2.83889e-05
3.19505e-05
3.55181e-05
3.90163e-05
4.23893e-05
4.23814e-05
2.69163e-05
2.18822e-05
1.63822e-05
1.53665e-05
1.92066e-05
2.16441e-05
2.34848e-05
2.50272e-05
2.66609e-05
2.85475e-05
3.08015e-05
3.13639e-05
2.17688e-05
5.76265e-06
1.70365e-07
1.56977e-07
3.35042e-06
3.15059e-06
1.68078e-06
1.87115e-06
3.30812e-06
7.11815e-06
1.68007e-05
1.98101e-05
2.29328e-05
2.61747e-05
2.53815e-05
2.72603e-05
3.28941e-05
3.96778e-05
4.26322e-05
4.54982e-05
3.96943e-05
2.78374e-05
2.58299e-05
1.95577e-05
1.7146e-05
2.11559e-05
2.47893e-05
2.62771e-05
2.69765e-05
2.79427e-05
2.95654e-05
3.16489e-05
3.37285e-05
3.57315e-05
3.45749e-05
2.10091e-05
5.66752e-06
1.83726e-07
1.57909e-07
3.05975e-06
3.97682e-06
2.09998e-06
2.42904e-06
4.35329e-06
1.05311e-05
2.22992e-05
2.53864e-05
2.85561e-05
2.8486e-05
3.15965e-05
3.7809e-05
4.03974e-05
4.2821e-05
4.51079e-05
4.52493e-05
2.77535e-05
2.40545e-05
2.56333e-05
2.17253e-05
2.10145e-05
2.43318e-05
2.57072e-05
2.65722e-05
2.7805e-05
2.90977e-05
3.07193e-05
3.3028e-05
3.55139e-05
3.77652e-05
3.59972e-05
2.07451e-05
5.60022e-06
2.14378e-07
1.57392e-07
2.83426e-06
5.43979e-06
2.70986e-06
3.04024e-06
5.24088e-06
1.23068e-05
2.51457e-05
2.78549e-05
3.05782e-05
3.32262e-05
3.57503e-05
3.81258e-05
4.03692e-05
4.25256e-05
4.44878e-05
3.26991e-05
2.57021e-05
2.62176e-05
2.36257e-05
2.09308e-05
2.22649e-05
2.32509e-05
2.38654e-05
2.46189e-05
2.61625e-05
2.87809e-05
3.15873e-05
3.46896e-05
3.78793e-05
4.02831e-05
3.78441e-05
2.10292e-05
5.75062e-06
2.46237e-07
1.54422e-07
2.71176e-06
7.06774e-06
3.25826e-06
3.42084e-06
5.45629e-06
1.14977e-05
2.59238e-05
2.81531e-05
3.0498e-05
3.28734e-05
3.50807e-05
3.70705e-05
3.88018e-05
4.02444e-05
4.15451e-05
3.07039e-05
2.51721e-05
2.4932e-05
2.2646e-05
1.99446e-05
2.0249e-05
2.13576e-05
2.27619e-05
2.42167e-05
2.5554e-05
2.74891e-05
3.05101e-05
3.46852e-05
3.94974e-05
4.37684e-05
4.23538e-05
2.32476e-05
6.18206e-06
2.77404e-07
1.48684e-07
2.55949e-06
9.52383e-06
3.99179e-06
3.6711e-06
5.08044e-06
9.08348e-06
2.02678e-05
2.76018e-05
2.93457e-05
3.10364e-05
3.26938e-05
3.4251e-05
3.56887e-05
3.70485e-05
3.84406e-05
3.08478e-05
2.55653e-05
2.32393e-05
2.33049e-05
2.13803e-05
1.98597e-05
2.08008e-05
2.20764e-05
2.34275e-05
2.49854e-05
2.69897e-05
3.00455e-05
3.4643e-05
4.07258e-05
4.67807e-05
4.64651e-05
2.55697e-05
6.63836e-06
2.96127e-07
1.41805e-07
2.43386e-06
1.08209e-05
4.76721e-06
3.85506e-06
4.65378e-06
7.22492e-06
1.40061e-05
2.60264e-05
2.73786e-05
2.88663e-05
3.04442e-05
3.20883e-05
3.38183e-05
3.57038e-05
3.78056e-05
3.39033e-05
2.77653e-05
2.48739e-05
2.54865e-05
2.33297e-05
2.09685e-05
2.13205e-05
2.18704e-05
2.26203e-05
2.38236e-05
2.58661e-05
2.92867e-05
3.45174e-05
4.12302e-05
4.74061e-05
4.66605e-05
2.54897e-05
6.73947e-06
3.07429e-07
1.35578e-07
2.3354e-06
1.05316e-05
5.55047e-06
4.08723e-06
4.42357e-06
6.14832e-06
1.10486e-05
2.46381e-05
2.59154e-05
2.74848e-05
2.93026e-05
3.13417e-05
3.35924e-05
3.60482e-05
3.88613e-05
3.92042e-05
3.26815e-05
2.84104e-05
2.82375e-05
2.47027e-05
2.1345e-05
2.11948e-05
2.13902e-05
2.1631e-05
2.26354e-05
2.49841e-05
2.87624e-05
3.44388e-05
4.16445e-05
4.78133e-05
4.67478e-05
2.54825e-05
6.82561e-06
3.29534e-07
1.30243e-07
2.28225e-06
1.01204e-05
6.1165e-06
4.26711e-06
4.36034e-06
5.80156e-06
1.01177e-05
2.24837e-05
2.51279e-05
2.68857e-05
2.89969e-05
3.13904e-05
3.40659e-05
3.70451e-05
4.02532e-05
4.36739e-05
3.77955e-05
3.16535e-05
3.01887e-05
2.57947e-05
2.17988e-05
2.10427e-05
2.07862e-05
2.08285e-05
2.14345e-05
2.32453e-05
2.70217e-05
3.3159e-05
4.16744e-05
4.92338e-05
4.89709e-05
2.67304e-05
6.99953e-06
3.68293e-07
1.24399e-07
2.23603e-06
9.77279e-06
6.61285e-06
4.46615e-06
4.40913e-06
5.68387e-06
9.60223e-06
2.07304e-05
2.48882e-05
2.67903e-05
2.90774e-05
3.17059e-05
3.45947e-05
3.76924e-05
4.09541e-05
4.43414e-05
4.26911e-05
3.54918e-05
2.99941e-05
2.81447e-05
2.42167e-05
2.08912e-05
2.00929e-05
1.97785e-05
1.99819e-05
2.11092e-05
2.42729e-05
3.07845e-05
4.01117e-05
4.88923e-05
4.96276e-05
2.7505e-05
7.10639e-06
4.19933e-07
1.1703e-07
2.1765e-06
9.2293e-06
7.26697e-06
4.72813e-06
4.49082e-06
5.61908e-06
9.14792e-06
1.87203e-05
2.49236e-05
2.68947e-05
2.92822e-05
3.19762e-05
3.48963e-05
3.79796e-05
4.11818e-05
4.44728e-05
4.48437e-05
3.73669e-05
3.16661e-05
2.9055e-05
2.5313e-05
2.18516e-05
2.03261e-05
1.9605e-05
1.95603e-05
2.03656e-05
2.24171e-05
2.69348e-05
3.51043e-05
4.53395e-05
4.91621e-05
2.80584e-05
7.23408e-06
4.8951e-07
1.088e-07
2.10868e-06
8.5163e-06
8.06525e-06
5.07298e-06
4.62672e-06
5.53433e-06
8.49438e-06
1.61716e-05
2.50438e-05
2.70495e-05
2.94694e-05
3.21979e-05
3.51388e-05
3.82166e-05
4.13797e-05
4.46002e-05
4.11014e-05
3.46604e-05
3.00094e-05
2.75737e-05
2.48126e-05
2.23609e-05
2.12867e-05
2.0885e-05
2.10303e-05
2.18819e-05
2.36682e-05
2.72477e-05
3.46203e-05
4.47748e-05
4.93437e-05
2.92769e-05
7.68913e-06
5.3527e-07
1.0195e-07
2.04071e-06
7.727e-06
9.01332e-06
5.53223e-06
4.81738e-06
5.52562e-06
8.10667e-06
1.46337e-05
2.58855e-05
2.80275e-05
3.05345e-05
3.32741e-05
3.61636e-05
3.91854e-05
4.23819e-05
4.02843e-05
3.42574e-05
2.9646e-05
2.86807e-05
2.68799e-05
2.40632e-05
2.31077e-05
2.32335e-05
2.39e-05
2.48572e-05
2.62395e-05
2.83449e-05
3.17662e-05
3.72503e-05
4.48092e-05
4.86611e-05
2.96885e-05
7.77171e-06
5.3576e-07
1.00514e-07
2.00082e-06
7.42345e-06
9.65584e-06
6.13582e-06
5.21139e-06
5.8264e-06
8.27765e-06
1.38456e-05
2.18586e-05
2.64682e-05
2.87965e-05
3.24494e-05
3.76412e-05
4.18852e-05
4.31996e-05
4.13193e-05
3.69035e-05
3.26596e-05
3.2164e-05
2.63292e-05
2.31891e-05
2.46575e-05
2.59145e-05
2.71793e-05
2.90518e-05
3.17439e-05
3.53296e-05
3.96026e-05
4.42571e-05
4.85085e-05
4.77767e-05
2.69289e-05
7.66502e-06
4.84232e-07
1.03819e-07
2.00672e-06
6.93766e-06
1.0426e-05
6.80967e-06
5.74588e-06
6.48001e-06
9.43483e-06
1.57906e-05
2.15522e-05
2.48688e-05
2.95197e-05
3.65685e-05
4.39614e-05
5.00447e-05
5.16581e-05
4.4547e-05
3.63989e-05
3.48293e-05
2.56601e-05
2.1734e-05
2.47218e-05
2.72784e-05
2.91724e-05
3.12195e-05
3.35944e-05
3.68934e-05
4.13219e-05
4.61349e-05
5.03289e-05
5.17654e-05
4.59826e-05
2.44027e-05
7.24968e-06
4.16625e-07
1.1179e-07
1.9995e-06
6.82951e-06
1.07974e-05
7.76249e-06
6.99548e-06
8.63955e-06
1.35713e-05
2.11957e-05
2.62677e-05
3.07033e-05
3.85172e-05
4.76542e-05
5.68532e-05
6.19059e-05
5.33965e-05
3.88796e-05
3.03488e-05
3.053e-05
2.50731e-05
2.40145e-05
3.02899e-05
3.24368e-05
3.30651e-05
3.40529e-05
3.66429e-05
4.04666e-05
4.56433e-05
5.01993e-05
5.30354e-05
5.23985e-05
4.3701e-05
2.17074e-05
6.97517e-06
4.10858e-07
1.12286e-07
1.91921e-06
6.40622e-06
1.14497e-05
9.09582e-06
9.03091e-06
1.23024e-05
2.0137e-05
2.77465e-05
3.27998e-05
3.99932e-05
4.92237e-05
5.98462e-05
7.00983e-05
6.82189e-05
4.88114e-05
3.32608e-05
3.21114e-05
3.21131e-05
2.75656e-05
2.89054e-05
3.38843e-05
3.6168e-05
3.66804e-05
3.71342e-05
3.76116e-05
3.80588e-05
3.86845e-05
4.26192e-05
5.07305e-05
5.14335e-05
4.40586e-05
2.1239e-05
6.77313e-06
4.62696e-07
1.03458e-07
1.85444e-06
5.9311e-06
1.23193e-05
1.15896e-05
1.2071e-05
1.70882e-05
2.63369e-05
3.32228e-05
3.82412e-05
4.58576e-05
5.66896e-05
6.59064e-05
7.1808e-05
7.73066e-05
5.55193e-05
3.77131e-05
3.20382e-05
3.48606e-05
3.49508e-05
3.32864e-05
3.45158e-05
3.58285e-05
3.73093e-05
3.72579e-05
3.62025e-05
3.4462e-05
3.28797e-05
3.25119e-05
3.37107e-05
4.19255e-05
4.72852e-05
2.23399e-05
6.84553e-06
6.37084e-07
7.67699e-08
1.64402e-06
4.77333e-06
1.14759e-05
1.22201e-05
1.33131e-05
1.87404e-05
2.64767e-05
3.28189e-05
3.84111e-05
4.55497e-05
5.48183e-05
6.35463e-05
6.85451e-05
7.11769e-05
6.14495e-05
4.79625e-05
3.76244e-05
3.25474e-05
3.56036e-05
3.93973e-05
3.68968e-05
3.64418e-05
3.71548e-05
3.72986e-05
3.55117e-05
3.15814e-05
2.6735e-05
2.29496e-05
2.34819e-05
2.99572e-05
4.28168e-05
3.65126e-05
8.61694e-06
1.10648e-06
4.77999e-08
1.44439e-06
3.89032e-06
9.63227e-06
1.31648e-05
1.43635e-05
1.68586e-05
2.19342e-05
2.74485e-05
3.24476e-05
3.76285e-05
4.22765e-05
4.5701e-05
4.75943e-05
4.63591e-05
4.25187e-05
3.71636e-05
3.49918e-05
3.36445e-05
3.05356e-05
3.71334e-05
4.17011e-05
3.5738e-05
3.56392e-05
3.58142e-05
3.52525e-05
3.28646e-05
2.81354e-05
2.22701e-05
1.78345e-05
1.74146e-05
2.55955e-05
4.38424e-05
9.65836e-06
1.27121e-06
3.16666e-08
1.34272e-06
3.39254e-06
8.0852e-06
1.27836e-05
1.39662e-05
1.56685e-05
1.93384e-05
2.36189e-05
2.76642e-05
3.11432e-05
3.37907e-05
3.52401e-05
3.55532e-05
3.49772e-05
3.38785e-05
3.25241e-05
2.98578e-05
2.65322e-05
2.42778e-05
2.9095e-05
3.19693e-05
2.76882e-05
2.82078e-05
2.90231e-05
2.89121e-05
2.82688e-05
2.76908e-05
2.67104e-05
2.49941e-05
2.49108e-05
2.70628e-05
3.7653e-05
1.11054e-05
1.20141e-06
3.21032e-08
1.52228e-06
3.87949e-06
8.55277e-06
1.35918e-05
1.57149e-05
1.73318e-05
1.98768e-05
2.3276e-05
2.69532e-05
3.02926e-05
3.27071e-05
3.38599e-05
3.38276e-05
3.29203e-05
3.13607e-05
2.94242e-05
2.69653e-05
2.44625e-05
2.32528e-05
2.43334e-05
2.45164e-05
2.32472e-05
2.30616e-05
2.35339e-05
2.4771e-05
2.66463e-05
2.92681e-05
3.26821e-05
3.5735e-05
3.7958e-05
4.45229e-05
3.6118e-05
8.9522e-06
7.76589e-07
4.17417e-08
1.6188e-06
4.09662e-06
8.66736e-06
1.37121e-05
1.64482e-05
1.85682e-05
2.11604e-05
2.4198e-05
2.741e-05
3.0466e-05
3.30107e-05
3.47041e-05
3.53459e-05
3.48488e-05
3.34444e-05
3.08533e-05
2.8329e-05
2.98095e-05
2.35151e-05
1.86962e-05
1.94932e-05
2.01867e-05
2.05286e-05
2.20285e-05
2.4166e-05
2.69017e-05
3.04182e-05
3.46215e-05
3.93814e-05
4.22672e-05
3.91554e-05
2.18596e-05
6.96754e-06
5.39902e-07
5.90365e-08
1.74423e-06
4.65218e-06
9.12375e-06
1.31835e-05
1.62339e-05
1.91128e-05
2.23496e-05
2.62025e-05
3.05312e-05
3.55225e-05
4.09644e-05
4.59994e-05
4.97278e-05
5.09483e-05
4.66768e-05
3.49187e-05
2.37959e-05
2.13833e-05
1.4681e-05
1.32098e-05
1.64616e-05
1.80034e-05
2.0916e-05
2.40711e-05
2.78563e-05
3.21744e-05
3.68221e-05
4.12347e-05
4.40852e-05
4.33241e-05
3.48781e-05
1.77441e-05
6.41275e-06
5.29734e-07
7.0688e-08
1.75336e-06
4.87549e-06
9.63288e-06
1.3752e-05
1.73666e-05
2.12208e-05
2.55686e-05
3.0776e-05
3.67889e-05
4.3375e-05
5.05054e-05
5.73247e-05
6.15013e-05
5.71554e-05
4.11692e-05
2.64745e-05
1.83591e-05
1.60804e-05
1.24628e-05
1.12867e-05
1.38567e-05
1.6644e-05
2.08019e-05
2.66511e-05
3.27888e-05
3.90701e-05
4.6289e-05
5.30537e-05
5.75251e-05
5.72502e-05
4.58073e-05
2.05915e-05
6.74525e-06
7.43734e-07
6.33522e-08
1.67671e-06
4.53929e-06
9.61593e-06
1.46393e-05
1.86366e-05
2.25329e-05
2.67458e-05
3.13119e-05
3.61361e-05
4.0766e-05
4.46703e-05
4.70788e-05
4.65114e-05
4.13913e-05
3.21557e-05
2.15721e-05
1.44059e-05
1.28039e-05
1.26345e-05
1.21802e-05
1.33847e-05
1.62361e-05
2.06982e-05
2.67256e-05
3.32869e-05
4.03117e-05
4.75032e-05
5.44082e-05
6.05425e-05
6.16177e-05
4.93564e-05
2.29239e-05
7.3049e-06
8.95443e-07
5.64155e-08
1.68784e-06
4.6195e-06
1.02518e-05
1.56168e-05
1.92864e-05
2.25091e-05
2.57463e-05
2.87713e-05
3.11662e-05
3.2849e-05
3.32647e-05
3.21224e-05
2.94813e-05
2.5381e-05
1.8541e-05
1.29846e-05
1.12242e-05
1.26819e-05
1.40861e-05
1.51645e-05
1.77256e-05
2.10048e-05
2.41237e-05
2.72357e-05
3.18157e-05
3.74821e-05
4.32468e-05
4.98248e-05
5.51915e-05
5.6126e-05
4.70119e-05
2.31696e-05
7.45323e-06
8.64584e-07
6.71912e-08
1.81819e-06
4.90541e-06
1.03404e-05
1.53713e-05
1.9034e-05
2.20932e-05
2.48493e-05
2.73869e-05
2.90952e-05
2.98533e-05
2.96549e-05
2.75441e-05
2.09096e-05
1.43185e-05
1.3628e-05
1.35017e-05
1.20065e-05
1.28126e-05
1.50922e-05
1.73148e-05
1.98771e-05
2.32671e-05
2.75578e-05
3.28343e-05
3.90935e-05
4.35415e-05
4.65936e-05
4.99473e-05
5.31923e-05
5.33996e-05
4.3198e-05
2.01014e-05
6.73439e-06
6.54811e-07
9.72469e-08
2.01338e-06
5.60029e-06
1.13269e-05
1.60857e-05
1.96376e-05
2.2995e-05
2.59839e-05
2.86568e-05
3.09392e-05
3.09809e-05
2.67953e-05
2.07875e-05
1.69446e-05
1.40667e-05
1.53533e-05
1.39769e-05
1.373e-05
1.77122e-05
1.81635e-05
1.85253e-05
2.00593e-05
2.2812e-05
2.63185e-05
3.0386e-05
3.51932e-05
4.29503e-05
5.22196e-05
5.63512e-05
5.53244e-05
5.07583e-05
3.72623e-05
1.77449e-05
6.40186e-06
6.52424e-07
1.12274e-07
2.05648e-06
5.91861e-06
1.24038e-05
1.77083e-05
2.16845e-05
2.54762e-05
2.90867e-05
3.17924e-05
3.35317e-05
3.0885e-05
2.43262e-05
1.7499e-05
1.32881e-05
1.53881e-05
1.66977e-05
1.54582e-05
1.80702e-05
1.90427e-05
1.87007e-05
1.83835e-05
1.87635e-05
2.07599e-05
2.47877e-05
3.01455e-05
3.63019e-05
4.25762e-05
4.88365e-05
5.55984e-05
6.04588e-05
5.67377e-05
3.98481e-05
1.7788e-05
6.48389e-06
7.80207e-07
1.07353e-07
1.98763e-06
5.47204e-06
1.28728e-05
1.99076e-05
2.41055e-05
2.76664e-05
3.12195e-05
3.36167e-05
3.25475e-05
2.86585e-05
2.03299e-05
1.41923e-05
1.2435e-05
1.49599e-05
1.86187e-05
2.05521e-05
2.31095e-05
2.28989e-05
2.05181e-05
1.82882e-05
1.73199e-05
1.84392e-05
2.15822e-05
2.64255e-05
3.26559e-05
3.97914e-05
4.70155e-05
5.31634e-05
5.8175e-05
5.86327e-05
4.68014e-05
2.10464e-05
6.98188e-06
9.7603e-07
8.20948e-08
1.82185e-06
5.0695e-06
1.22332e-05
1.96189e-05
2.43369e-05
2.79145e-05
3.0677e-05
3.21557e-05
3.01756e-05
2.30295e-05
1.62292e-05
1.29404e-05
1.29435e-05
1.57581e-05
2.07778e-05
2.5725e-05
2.77112e-05
2.52027e-05
2.05889e-05
1.71124e-05
1.56199e-05
1.59663e-05
1.83614e-05
2.2827e-05
2.90788e-05
3.62373e-05
4.30723e-05
4.93913e-05
5.43754e-05
5.5375e-05
4.60745e-05
2.20391e-05
7.33782e-06
1.05208e-06
5.45449e-08
1.63122e-06
4.09684e-06
9.42626e-06
1.70666e-05
2.3118e-05
2.73394e-05
3.06034e-05
3.1572e-05
2.78995e-05
2.12765e-05
1.60822e-05
1.36017e-05
1.41528e-05
1.77792e-05
2.44055e-05
3.03305e-05
2.98469e-05
2.4872e-05
1.98306e-05
1.68907e-05
1.54849e-05
1.52217e-05
1.60923e-05
1.96747e-05
2.52924e-05
3.19994e-05
3.93679e-05
4.69016e-05
5.28907e-05
5.52981e-05
4.73192e-05
2.25922e-05
7.51763e-06
1.0896e-06
2.97365e-08
1.35727e-06
3.10397e-06
6.66629e-06
1.29221e-05
1.98255e-05
2.54612e-05
2.9839e-05
3.16633e-05
2.86893e-05
2.17593e-05
1.65219e-05
1.44159e-05
1.55623e-05
1.91615e-05
2.48223e-05
3.39124e-05
3.77806e-05
3.27784e-05
2.71288e-05
2.11256e-05
1.66932e-05
1.38927e-05
1.24517e-05
1.39638e-05
1.88621e-05
2.7006e-05
3.55713e-05
4.39606e-05
5.14095e-05
5.4732e-05
4.8919e-05
2.40636e-05
7.79934e-06
1.24305e-06
9.7784e-09
1.06095e-06
2.07147e-06
3.94391e-06
7.72961e-06
1.42066e-05
2.13139e-05
2.68362e-05
2.98297e-05
2.98541e-05
2.49704e-05
1.92238e-05
1.58684e-05
1.48373e-05
1.57246e-05
1.76121e-05
2.62001e-05
3.8057e-05
3.55454e-05
3.53017e-05
3.22652e-05
2.35655e-05
1.62037e-05
1.08523e-05
9.29152e-06
1.13585e-05
1.67824e-05
2.55866e-05
3.66342e-05
4.75079e-05
5.34349e-05
5.0068e-05
2.6098e-05
8.01681e-06
1.45052e-06
4.25212e-09
1.07104e-06
1.45208e-06
2.11977e-06
3.44085e-06
6.00027e-06
1.10562e-05
1.88115e-05
2.5405e-05
2.65134e-05
2.33279e-05
1.97205e-05
1.72521e-05
1.62909e-05
1.59601e-05
1.28734e-05
1.52636e-05
2.17722e-05
2.13195e-05
2.35119e-05
2.32805e-05
1.871e-05
1.44052e-05
1.24459e-05
1.24687e-05
1.36138e-05
1.53956e-05
1.8555e-05
2.40139e-05
3.42239e-05
4.79891e-05
5.17313e-05
2.77e-05
8.15525e-06
1.49031e-06
5.60113e-09
2.25051e-06
1.61188e-06
1.6548e-06
1.97395e-06
2.76594e-06
4.41158e-06
8.07807e-06
1.49815e-05
2.10713e-05
2.10924e-05
1.77528e-05
1.58698e-05
1.48646e-05
1.47123e-05
1.41673e-05
1.09644e-05
1.24691e-05
1.6013e-05
1.31044e-05
1.23366e-05
1.29668e-05
1.39123e-05
1.50167e-05
1.69795e-05
1.98208e-05
2.34096e-05
2.68938e-05
2.91302e-05
3.13333e-05
3.86741e-05
4.94643e-05
3.10927e-05
8.31931e-06
1.45352e-06
1.06881e-08
2.22407e-06
5.8239e-06
2.85905e-06
2.61436e-06
3.06622e-06
3.5332e-06
4.99637e-06
8.31064e-06
1.4752e-05
1.96706e-05
1.78549e-05
1.42153e-05
1.19242e-05
1.13206e-05
1.11233e-05
8.96234e-06
9.69816e-06
1.21379e-05
1.223e-05
1.43547e-05
1.65155e-05
1.88069e-05
2.15651e-05
2.44063e-05
2.64932e-05
2.7551e-05
2.88397e-05
3.25519e-05
3.89251e-05
4.53584e-05
4.95095e-05
3.05389e-05
8.1905e-06
1.26496e-06
2.17929e-08
3.70675e-06
7.80135e-06
5.11762e-06
3.56869e-06
3.48741e-06
5.28856e-06
8.91427e-06
1.40092e-05
1.64623e-05
1.6844e-05
1.47767e-05
1.16103e-05
9.84086e-06
1.00753e-05
1.17608e-05
1.46024e-05
1.8733e-05
2.12425e-05
2.28563e-05
2.46239e-05
2.62646e-05
2.79011e-05
2.94595e-05
3.04547e-05
3.09225e-05
3.1552e-05
3.29588e-05
3.56325e-05
4.14131e-05
4.91837e-05
4.98618e-05
2.69381e-05
7.67499e-06
1.08726e-06
2.53682e-08
4.15055e-06
4.53609e-06
5.39374e-06
7.63748e-06
1.12698e-05
1.64952e-05
2.24493e-05
2.48066e-05
2.00703e-05
1.62512e-05
1.63518e-05
1.78377e-05
2.15377e-05
2.38818e-05
2.60453e-05
2.95944e-05
2.86162e-05
2.82332e-05
2.88307e-05
2.98579e-05
3.0795e-05
3.13822e-05
3.19431e-05
3.30368e-05
3.49918e-05
3.76442e-05
4.05954e-05
4.36501e-05
4.74123e-05
5.16818e-05
4.88844e-05
2.44082e-05
7.3159e-06
9.62784e-07
5.9037e-08
4.874e-06
1.02683e-05
1.53505e-05
2.17026e-05
2.72959e-05
3.12719e-05
3.19622e-05
2.41648e-05
1.92603e-05
2.04967e-05
2.738e-05
3.11635e-05
3.32862e-05
4.02449e-05
4.49572e-05
4.05478e-05
3.19209e-05
2.80691e-05
2.70497e-05
2.73715e-05
2.86927e-05
3.07668e-05
3.34409e-05
3.65088e-05
3.96655e-05
4.27725e-05
4.59713e-05
4.93711e-05
5.23543e-05
5.3325e-05
4.6363e-05
2.16054e-05
6.90588e-06
8.56914e-07
8.90446e-08
5.19883e-06
1.71488e-05
2.24672e-05
2.39998e-05
2.34552e-05
2.06231e-05
1.92186e-05
2.08629e-05
2.81314e-05
3.66303e-05
4.14734e-05
4.89808e-05
5.03609e-05
4.5323e-05
3.75444e-05
2.78815e-05
2.33111e-05
2.36016e-05
2.59874e-05
2.87604e-05
3.12637e-05
3.37406e-05
3.63445e-05
3.90493e-05
4.22318e-05
4.59422e-05
4.9521e-05
5.24866e-05
5.40179e-05
5.24279e-05
4.21438e-05
2.00984e-05
6.80021e-06
8.51253e-07
8.26958e-08
5.61294e-06
2.46235e-05
1.79155e-05
1.34153e-05
1.35504e-05
1.69375e-05
2.29233e-05
2.69329e-05
2.94974e-05
3.7005e-05
4.44732e-05
4.50377e-05
3.80403e-05
2.99277e-05
2.55731e-05
2.29124e-05
2.23395e-05
2.44514e-05
2.77e-05
3.06869e-05
3.2855e-05
3.44997e-05
3.64059e-05
3.93859e-05
4.32522e-05
4.74637e-05
5.14012e-05
5.46417e-05
5.60914e-05
5.38143e-05
4.14886e-05
1.8892e-05
6.55827e-06
8.82966e-07
4.93818e-08
6.23756e-06
2.74004e-05
1.49008e-05
1.19722e-05
1.25879e-05
1.32952e-05
1.383e-05
1.84717e-05
2.89038e-05
3.77205e-05
3.87719e-05
3.39447e-05
2.8556e-05
2.57359e-05
2.26976e-05
2.14738e-05
2.42787e-05
2.88225e-05
3.16011e-05
3.25244e-05
3.34077e-05
3.46533e-05
3.64612e-05
3.89199e-05
4.20088e-05
4.5936e-05
5.08657e-05
5.57447e-05
5.81358e-05
5.57492e-05
4.26535e-05
1.92065e-05
6.63453e-06
9.60803e-07
2.49412e-08
5.19346e-06
1.87238e-05
1.27325e-05
9.93178e-06
8.50696e-06
7.85791e-06
1.00314e-05
1.67488e-05
2.57486e-05
3.13359e-05
3.20906e-05
3.00862e-05
2.88826e-05
2.72183e-05
2.52054e-05
2.54401e-05
2.77571e-05
3.06793e-05
3.26835e-05
3.37642e-05
3.45472e-05
3.53022e-05
3.62304e-05
3.77483e-05
4.03507e-05
4.42079e-05
4.88363e-05
5.33595e-05
5.67447e-05
5.54016e-05
4.29506e-05
1.95626e-05
6.7565e-06
1.03194e-06
9.78659e-09
3.30934e-06
9.81661e-06
7.52749e-06
5.42402e-06
5.0448e-06
6.13322e-06
9.40166e-06
1.65007e-05
2.45798e-05
3.01853e-05
3.26984e-05
3.36256e-05
3.39827e-05
3.05331e-05
2.76351e-05
2.84398e-05
3.09639e-05
3.35857e-05
3.56845e-05
3.69674e-05
3.73538e-05
3.72028e-05
3.68508e-05
3.68682e-05
3.7951e-05
4.07479e-05
4.53945e-05
5.07641e-05
5.45496e-05
5.40901e-05
4.3697e-05
2.04678e-05
6.83877e-06
1.1026e-06
2.8967e-09
3.16337e-06
4.44542e-06
4.42926e-06
4.44227e-06
5.61313e-06
9.13416e-06
1.5248e-05
2.32138e-05
3.05993e-05
3.57391e-05
3.90265e-05
4.08964e-05
3.69037e-05
3.237e-05
3.18226e-05
3.33248e-05
3.55478e-05
3.78035e-05
3.95566e-05
4.06199e-05
4.0705e-05
3.98471e-05
3.87881e-05
3.8186e-05
3.84223e-05
3.94273e-05
4.21773e-05
4.70842e-05
5.19215e-05
5.31233e-05
4.36624e-05
2.04972e-05
6.86473e-06
1.11148e-06
3.95037e-09
4.27721e-06
5.8923e-06
7.66283e-06
1.04845e-05
1.51446e-05
2.15255e-05
2.85872e-05
3.50664e-05
4.02365e-05
4.41466e-05
4.63869e-05
4.16741e-05
3.59529e-05
3.44771e-05
3.53801e-05
3.73985e-05
3.97765e-05
4.17518e-05
4.27881e-05
4.25578e-05
4.1479e-05
4.01372e-05
3.91976e-05
3.91629e-05
4.02915e-05
4.27353e-05
4.47137e-05
4.67113e-05
5.02834e-05
5.22097e-05
4.43146e-05
2.10491e-05
6.88238e-06
1.10542e-06
8.51582e-09
4.46831e-06
8.41269e-06
1.30862e-05
1.91148e-05
2.6216e-05
3.33536e-05
3.96826e-05
4.50494e-05
4.94173e-05
5.15336e-05
4.57232e-05
3.90539e-05
3.71534e-05
3.78812e-05
3.95288e-05
4.19063e-05
4.42597e-05
4.52814e-05
4.49412e-05
4.36467e-05
4.18708e-05
4.03048e-05
3.93765e-05
3.93712e-05
4.04365e-05
4.27925e-05
4.65878e-05
4.99653e-05
5.20261e-05
5.23262e-05
4.41925e-05
2.1231e-05
6.90992e-06
1.068e-06
1.20665e-08
4.29179e-06
9.22899e-06
1.63112e-05
2.58829e-05
3.62921e-05
4.41562e-05
4.86141e-05
5.2999e-05
5.72722e-05
5.10881e-05
4.30215e-05
4.03155e-05
4.05459e-05
4.22261e-05
4.53242e-05
4.76643e-05
4.76693e-05
4.68318e-05
4.54702e-05
4.36146e-05
4.17211e-05
4.03118e-05
3.97397e-05
4.01078e-05
4.13991e-05
4.34809e-05
4.66971e-05
5.04348e-05
5.29566e-05
5.25654e-05
4.33857e-05
2.08567e-05
6.90093e-06
1.02743e-06
1.39868e-08
4.10478e-06
9.3048e-06
1.77706e-05
3.03601e-05
4.0687e-05
4.53085e-05
4.98341e-05
5.42279e-05
5.70972e-05
4.85544e-05
4.47096e-05
4.44391e-05
4.6083e-05
4.87888e-05
4.9949e-05
4.93365e-05
4.89478e-05
4.80205e-05
4.59634e-05
4.34869e-05
4.15487e-05
4.04381e-05
4.01847e-05
4.06584e-05
4.17981e-05
4.39332e-05
4.67731e-05
4.98294e-05
5.23158e-05
5.21582e-05
4.30497e-05
2.05737e-05
6.85188e-06
1.00965e-06
1.47267e-08
3.92048e-06
9.10117e-06
1.79336e-05
3.16707e-05
4.09709e-05
4.56242e-05
5.01604e-05
5.4557e-05
5.33953e-05
5.07068e-05
5.0145e-05
5.09204e-05
5.23984e-05
5.26833e-05
5.23369e-05
5.2473e-05
5.15343e-05
4.91704e-05
4.61725e-05
4.35048e-05
4.17827e-05
4.10062e-05
4.07908e-05
4.10522e-05
4.18673e-05
4.32937e-05
4.54912e-05
4.84595e-05
5.15894e-05
5.16998e-05
4.27675e-05
2.04874e-05
6.84905e-06
1.00951e-06
1.53083e-08
3.82606e-06
8.92148e-06
1.74739e-05
3.07733e-05
4.14477e-05
4.61666e-05
5.08047e-05
5.53421e-05
5.96935e-05
5.88697e-05
5.80335e-05
5.76169e-05
5.68743e-05
5.6647e-05
5.70892e-05
5.65368e-05
5.45126e-05
5.14611e-05
4.82107e-05
4.53032e-05
4.32462e-05
4.2093e-05
4.13293e-05
4.06031e-05
4.0065e-05
4.0588e-05
4.28914e-05
4.69543e-05
5.11282e-05
5.18307e-05
4.31709e-05
2.06875e-05
6.94311e-06
1.02178e-06
1.68311e-08
3.84306e-06
9.27053e-06
1.79711e-05
3.05374e-05
4.24362e-05
4.7163e-05
5.1841e-05
5.64648e-05
6.10127e-05
6.54496e-05
6.6306e-05
6.47426e-05
6.3939e-05
6.37496e-05
6.32659e-05
6.1981e-05
5.9658e-05
5.62733e-05
5.22579e-05
4.85073e-05
4.59324e-05
4.40599e-05
4.18123e-05
3.91666e-05
3.69583e-05
3.65615e-05
3.91214e-05
4.44604e-05
5.04097e-05
5.23254e-05
4.44186e-05
2.1267e-05
7.04973e-06
1.0494e-06
1.88003e-08
3.85315e-06
9.36716e-06
1.83624e-05
3.1972e-05
4.4428e-05
4.91385e-05
5.37932e-05
5.8409e-05
6.29867e-05
6.75136e-05
7.19638e-05
7.5472e-05
7.44255e-05
7.32718e-05
7.20998e-05
7.03518e-05
6.72136e-05
6.27778e-05
5.76922e-05
5.30906e-05
4.98828e-05
4.69885e-05
4.30718e-05
3.83956e-05
3.42527e-05
3.22734e-05
3.39091e-05
3.95508e-05
4.70898e-05
5.14376e-05
4.55694e-05
2.18131e-05
7.09598e-06
1.09231e-06
2.09758e-08
3.982e-06
9.76717e-06
1.87835e-05
3.22306e-05
4.70461e-05
5.17975e-05
5.64577e-05
6.10582e-05
6.56152e-05
7.01356e-05
7.46188e-05
7.90557e-05
8.34294e-05
8.551e-05
8.33082e-05
7.99112e-05
7.54093e-05
6.98518e-05
6.37082e-05
5.8339e-05
5.44486e-05
5.05103e-05
4.51596e-05
3.86098e-05
3.24138e-05
2.87562e-05
2.90354e-05
3.39525e-05
4.2561e-05
4.92132e-05
4.56399e-05
2.21793e-05
7.14207e-06
1.14254e-06
2.34798e-08
4.1809e-06
1.03629e-05
1.96392e-05
3.30059e-05
4.91912e-05
5.47769e-05
5.9458e-05
6.40654e-05
6.86102e-05
7.31009e-05
7.75468e-05
8.19578e-05
8.63341e-05
9.06149e-05
9.39147e-05
8.91544e-05
8.26342e-05
7.53536e-05
6.78118e-05
6.18826e-05
5.74876e-05
5.25063e-05
4.56969e-05
3.78257e-05
3.06638e-05
2.6733e-05
2.67429e-05
3.05837e-05
3.83898e-05
4.73753e-05
4.61786e-05
2.25247e-05
7.16903e-06
1.15566e-06
2.55181e-08
4.41937e-06
1.10654e-05
2.11285e-05
3.51291e-05
5.11484e-05
5.74198e-05
6.22645e-05
6.69685e-05
7.15601e-05
7.60605e-05
8.04787e-05
8.48055e-05
8.90167e-05
9.30773e-05
9.69415e-05
9.72263e-05
8.9299e-05
8.0107e-05
7.11024e-05
6.43582e-05
5.8769e-05
5.15468e-05
4.23079e-05
3.25603e-05
2.67069e-05
2.51233e-05
2.65186e-05
3.0868e-05
3.83185e-05
4.6579e-05
4.64092e-05
2.29899e-05
7.16644e-06
1.14619e-06
2.67508e-08
4.57787e-06
1.1741e-05
2.27183e-05
3.75719e-05
5.35572e-05
5.88205e-05
6.3855e-05
6.87138e-05
7.34037e-05
7.79375e-05
8.23263e-05
8.65327e-05
9.05101e-05
9.42345e-05
9.76544e-05
0.000100839
9.57858e-05
8.54872e-05
7.48256e-05
6.61638e-05
5.77512e-05
4.70726e-05
3.5717e-05
2.83561e-05
2.51091e-05
2.44965e-05
2.63175e-05
3.0817e-05
3.82492e-05
4.62632e-05
4.57506e-05
2.26466e-05
7.08889e-06
1.1311e-06
2.72907e-08
4.62763e-06
1.22228e-05
2.47338e-05
4.15541e-05
5.37193e-05
5.92145e-05
6.44959e-05
6.94964e-05
7.42305e-05
7.87094e-05
8.29351e-05
8.69494e-05
9.07674e-05
9.43344e-05
9.75803e-05
0.000100415
0.000100462
8.95512e-05
7.72905e-05
6.57567e-05
5.33133e-05
3.97292e-05
3.03525e-05
2.53966e-05
2.34105e-05
2.39797e-05
2.66674e-05
3.1583e-05
3.88634e-05
4.64553e-05
4.57065e-05
2.25207e-05
7.0663e-06
1.13511e-06
2.82295e-08
4.71601e-06
1.28947e-05
2.73054e-05
4.75476e-05
5.35167e-05
5.91882e-05
6.453e-05
6.95586e-05
7.42929e-05
7.87453e-05
8.29171e-05
8.67938e-05
9.03396e-05
9.35255e-05
9.63116e-05
9.86452e-05
0.000100474
8.93453e-05
7.56929e-05
6.04538e-05
4.43618e-05
3.3088e-05
2.65093e-05
2.31903e-05
2.26852e-05
2.40223e-05
2.69979e-05
3.17029e-05
3.82693e-05
4.51513e-05
4.44209e-05
2.2118e-05
6.96744e-06
1.15162e-06
2.85106e-08
4.76998e-06
1.34602e-05
2.97208e-05
4.68309e-05
5.28728e-05
5.85954e-05
6.39606e-05
6.89628e-05
7.3608e-05
7.79025e-05
8.18472e-05
8.54342e-05
8.86446e-05
9.14466e-05
9.37964e-05
9.56401e-05
9.6279e-05
8.24371e-05
6.51387e-05
4.80391e-05
3.56137e-05
2.80335e-05
2.41265e-05
2.30778e-05
2.34826e-05
2.48425e-05
2.74095e-05
3.1431e-05
3.73519e-05
4.38852e-05
4.31428e-05
2.16228e-05
6.85876e-06
1.15339e-06
2.82145e-08
4.92533e-06
1.41942e-05
3.19248e-05
4.59282e-05
5.19445e-05
5.7631e-05
6.29308e-05
6.78318e-05
7.23362e-05
7.6445e-05
8.01516e-05
8.34382e-05
8.62749e-05
8.86214e-05
9.04293e-05
9.16465e-05
8.54585e-05
6.67887e-05
4.79335e-05
3.49224e-05
2.73276e-05
2.38799e-05
2.33376e-05
2.40825e-05
2.52875e-05
2.66577e-05
2.85264e-05
3.21832e-05
3.76746e-05
4.33308e-05
4.25063e-05
2.13849e-05
6.76919e-06
1.14232e-06
2.69835e-08
5.1779e-06
1.48806e-05
3.352e-05
4.50842e-05
5.10843e-05
5.68107e-05
6.20457e-05
6.68021e-05
7.10924e-05
7.49205e-05
7.82778e-05
8.11425e-05
8.34806e-05
8.52497e-05
8.64055e-05
8.68695e-05
6.9595e-05
4.74328e-05
3.20434e-05
2.43376e-05
2.15808e-05
2.18083e-05
2.3225e-05
2.50166e-05
2.68989e-05
2.89231e-05
3.11751e-05
3.41631e-05
3.91882e-05
4.43795e-05
4.21715e-05
2.09776e-05
6.66091e-06
1.09116e-06
2.40698e-08
5.30939e-06
1.50744e-05
3.38707e-05
4.35513e-05
4.96226e-05
5.53107e-05
6.04459e-05
6.50459e-05
6.91243e-05
7.26822e-05
7.57069e-05
7.81719e-05
8.00396e-05
8.12657e-05
8.18769e-05
7.74859e-05
5.0564e-05
3.06464e-05
2.17196e-05
1.92685e-05
1.97637e-05
2.11919e-05
2.28733e-05
2.47938e-05
2.71404e-05
2.9935e-05
3.32991e-05
3.71266e-05
4.11767e-05
4.48719e-05
4.03478e-05
1.94304e-05
6.50848e-06
1.01301e-06
1.98442e-08
5.14111e-06
1.47439e-05
3.34117e-05
4.01826e-05
4.64303e-05
5.21387e-05
5.72859e-05
6.187e-05
6.58921e-05
6.93469e-05
7.22183e-05
7.44758e-05
7.60792e-05
7.70883e-05
7.75421e-05
6.20955e-05
3.56252e-05
2.28044e-05
1.88563e-05
1.84881e-05
1.92659e-05
2.04646e-05
2.18912e-05
2.35812e-05
2.58075e-05
2.91848e-05
3.38205e-05
3.89348e-05
4.32182e-05
4.50066e-05
3.91715e-05
1.89619e-05
6.46924e-06