/*--------------------------------*- C++ -*----------------------------------*\
| =========                 |                                                 |
| \\      /  F ield         | OpenFOAM: The Open Source CFD Toolbox           |
|  \\    /   O peration     | Version:  v1906                                 |
|   \\  /    A nd           | Web:      www.OpenFOAM.com                      |
|    \\/     M anipulation  |                                                 |
\*---------------------------------------------------------------------------*/
FoamFile
{
    version     2.0;
    format      ascii;
    class       volScalarField;
    location    "1000";
    object      k;
}
// * * * * * * * * * * * * * * * * * * * * * * * * * * * * * * * * * * * * * //

dimensions      [0 2 -2 0 0 0 0];


internalField   nonuniform List<scalar> 
78750
(
1.45378e-05
2.47634e-05
3.01829e-05
3.34891e-05
3.62004e-05
3.87709e-05
4.13007e-05
4.37719e-05
4.62697e-05
4.88239e-05
5.14675e-05
5.42174e-05
5.70833e-05
6.00705e-05
6.31818e-05
6.6416e-05
6.97637e-05
7.32049e-05
7.67317e-05
8.03288e-05
8.39664e-05
8.76136e-05
9.12332e-05
9.47811e-05
9.82212e-05
0.000101538
0.000104405
0.000105989
0.000105827
0.000101488
9.40016e-05
8.16094e-05
6.40606e-05
3.94009e-05
1.12374e-05
4.66435e-05
3.29176e-05
3.1079e-05
3.14499e-05
3.19228e-05
3.23176e-05
3.27866e-05
3.33794e-05
3.40928e-05
3.49214e-05
3.58671e-05
3.69486e-05
3.82237e-05
3.98157e-05
4.19414e-05
4.49232e-05
4.9107e-05
5.49152e-05
6.27437e-05
7.31017e-05
8.63395e-05
0.000101972
0.000119651
0.000137774
0.000155594
0.000173742
0.000192667
0.00020871
0.000215636
0.000215977
0.000207504
0.000189983
0.000162276
0.00011609
4.71197e-05
5.78412e-05
4.07184e-05
3.2037e-05
2.69648e-05
2.33702e-05
2.13304e-05
2.04196e-05
2.03815e-05
2.10951e-05
2.24983e-05
2.46195e-05
2.75261e-05
3.13027e-05
3.60285e-05
4.17468e-05
4.84734e-05
5.75574e-05
6.8786e-05
8.19341e-05
9.67325e-05
0.000112873
0.000130041
0.000147297
0.000164634
0.000183685
0.000203929
0.000220615
0.000230941
0.000234169
0.000231096
0.00022052
0.000202849
0.000177242
0.000134628
6.05218e-05
6.33062e-05
4.70813e-05
3.60746e-05
2.78994e-05
2.28416e-05
1.99794e-05
1.92415e-05
1.97536e-05
2.12285e-05
2.36236e-05
2.72984e-05
3.28749e-05
4.05279e-05
5.03882e-05
6.26824e-05
7.75622e-05
9.39472e-05
0.000111802
0.000130785
0.000150419
0.000170228
0.000190033
0.000211303
0.000235099
0.00025758
0.000273805
0.000283579
0.000286702
0.000284676
0.000275548
0.000259437
0.00023624
0.000203137
0.000149224
6.47246e-05
6.55934e-05
4.97429e-05
3.76407e-05
2.85021e-05
2.3309e-05
2.21668e-05
2.54233e-05
3.13189e-05
3.88179e-05
4.791e-05
5.82997e-05
6.97787e-05
8.26631e-05
9.71834e-05
0.000113234
0.000130474
0.000148516
0.000166991
0.000185572
0.000204179
0.000224591
0.000246802
0.00026751
0.000286313
0.000300401
0.000310007
0.000315389
0.000316001
0.000311188
0.000299815
0.000281424
0.000255448
0.000219379
0.000161553
6.96449e-05
6.93753e-05
5.3694e-05
4.14713e-05
3.36887e-05
3.29318e-05
3.98919e-05
5.08016e-05
6.26082e-05
7.49484e-05
8.85772e-05
0.000103287
0.00011953
0.000137125
0.000154605
0.000171278
0.000187689
0.000204183
0.000221146
0.000239809
0.000259104
0.000278049
0.000297275
0.000314103
0.000328491
0.000340502
0.00034972
0.000354783
0.000355235
0.000350169
0.000337436
0.000316746
0.000288151
0.000247256
0.000179787
7.53518e-05
6.98116e-05
5.71305e-05
4.714e-05
4.28362e-05
4.65226e-05
5.76602e-05
7.20811e-05
8.6024e-05
9.99701e-05
0.000114855
0.000130648
0.000146781
0.000161825
0.000175931
0.000189568
0.000202845
0.000215958
0.000230786
0.000248036
0.000265368
0.000283717
0.000303944
0.000324389
0.000343318
0.000360439
0.00037423
0.000383201
0.000385556
0.000381325
0.000368589
0.000347498
0.000317847
0.00027413
0.000200682
8.82152e-05
6.96034e-05
6.08434e-05
5.39789e-05
5.25311e-05
5.88383e-05
7.14318e-05
8.59742e-05
9.9134e-05
0.000111821
0.00012502
0.000138289
0.000151351
0.000164025
0.000176352
0.000188547
0.000200017
0.00021164
0.000224705
0.000238947
0.000255402
0.000275762
0.000299846
0.000325887
0.000352229
0.00037655
0.00039688
0.000410794
0.000415565
0.000412739
0.000400248
0.000378603
0.000347829
0.000301979
0.000223098
0.00010155
6.83048e-05
6.41704e-05
6.04902e-05
6.10213e-05
6.78935e-05
7.93857e-05
9.19866e-05
0.000102931
0.000113461
0.000124871
0.000136787
0.000148193
0.000158769
0.000168226
0.000176324
0.000183769
0.000192054
0.00020269
0.000216413
0.000234721
0.000259585
0.000290431
0.000323929
0.00035758
0.000388781
0.000414969
0.00043359
0.000441126
0.000439373
0.00042698
0.000405279
0.000374891
0.000329249
0.000247421
0.000114743
6.57798e-05
6.64539e-05
6.58942e-05
6.77341e-05
7.39494e-05
8.31342e-05
9.30689e-05
0.000102512
0.000111008
0.000119424
0.000127776
0.000136155
0.00014421
0.000151812
0.00015915
0.000166799
0.000176295
0.000189745
0.00020808
0.000231785
0.000261908
0.000299068
0.000339065
0.000377047
0.00041024
0.000436704
0.000454767
0.000462158
0.000460514
0.000448944
0.000428707
0.000399855
0.000354696
0.000268958
0.000122692
6.27482e-05
6.75166e-05
6.95306e-05
7.21926e-05
7.72141e-05
8.38036e-05
9.10176e-05
9.75647e-05
0.00010371
0.000110098
0.000117271
0.000125041
0.000133316
0.000142221
0.000152155
0.00016352
0.00017733
0.000195931
0.000221247
0.000252254
0.000288016
0.000327929
0.000368337
0.000405199
0.000436782
0.000461903
0.000479235
0.000486641
0.000485938
0.000475738
0.000456548
0.000427418
0.000379482
0.000286062
0.000127426
6.00025e-05
6.77759e-05
7.18455e-05
7.51593e-05
7.91132e-05
8.33619e-05
8.75956e-05
9.23048e-05
9.74058e-05
0.000103341
0.000110785
0.000119607
0.000129756
0.00014127
0.000154212
0.000169506
0.000188167
0.000211683
0.000240564
0.000273011
0.000308575
0.000348158
0.000388317
0.000425236
0.000457125
0.000483684
0.000503056
0.000513684
0.00051478
0.000506558
0.00048834
0.000459012
0.000408672
0.000308296
0.000136714
5.76477e-05
6.77763e-05
7.33813e-05
7.70361e-05
8.00022e-05
8.2406e-05
8.49492e-05
8.8641e-05
9.35557e-05
9.98494e-05
0.000108138
0.00011835
0.000130268
0.000144026
0.000159896
0.000177649
0.000197346
0.000220306
0.000248053
0.000279389
0.000314189
0.000353078
0.000393288
0.000431586
0.000466906
0.000496547
0.000519769
0.000535542
0.000540996
0.000536682
0.000521066
0.000492783
0.00044189
0.000336919
0.000152961
5.50658e-05
6.75613e-05
7.44111e-05
7.82831e-05
8.05787e-05
8.19716e-05
8.35925e-05
8.69449e-05
9.21041e-05
9.89402e-05
0.000107916
0.000119006
0.000132163
0.000147137
0.000163806
0.000182056
0.000201779
0.000223676
0.000249398
0.000280159
0.000314568
0.00035156
0.00039103
0.000430426
0.000467434
0.00050108
0.000530842
0.000554949
0.00056981
0.000570881
0.00055702
0.00052837
0.000475985
0.000367356
0.000174517
5.18077e-05
6.65609e-05
7.47195e-05
7.89749e-05
8.10815e-05
8.20059e-05
8.34189e-05
8.67166e-05
9.21239e-05
9.93143e-05
0.000108658
0.0001203
0.00013387
0.000149111
0.000165816
0.000183841
0.000203092
0.000223984
0.000248493
0.000278179
0.00031126
0.000346961
0.000386307
0.000427906
0.000469539
0.000509825
0.000547517
0.000580911
0.000602245
0.000605525
0.000591393
0.000561424
0.000507685
0.00039777
0.00020357
4.81687e-05
6.48743e-05
7.44716e-05
7.93045e-05
8.14254e-05
8.22281e-05
8.35061e-05
8.68248e-05
9.25061e-05
0.000100062
0.000109599
0.00012144
0.000135235
0.000150646
0.00016739
0.000185264
0.000204163
0.000225123
0.000250471
0.00028141
0.000317119
0.000357931
0.000404133
0.000453396
0.000502038
0.000547359
0.000588443
0.000619218
0.000636436
0.000636729
0.000619814
0.000586482
0.000529603
0.000418287
0.000222671
4.51397e-05
6.2839e-05
7.36424e-05
7.9255e-05
8.18416e-05
8.29738e-05
8.45884e-05
8.86096e-05
9.55216e-05
0.00010414
0.000114454
0.000126906
0.000140985
0.000156368
0.000173025
0.000191254
0.000212413
0.000239368
0.000275155
0.000320187
0.000371942
0.000429611
0.000489785
0.000546815
0.000596453
0.000636035
0.000663658
0.000678839
0.000681831
0.000672427
0.000647516
0.000607947
0.000543909
0.000421774
0.00022283
4.45086e-05
6.17789e-05
7.32213e-05
7.92773e-05
8.23708e-05
8.41664e-05
8.66466e-05
9.1568e-05
9.93211e-05
0.000109163
0.00012112
0.000136185
0.00015516
0.000178417
0.000206779
0.000241828
0.00028539
0.000338839
0.000401085
0.000466143
0.000531821
0.000594853
0.000644966
0.0006817
0.000706986
0.000721941
0.000727992
0.000726522
0.000717384
0.000698478
0.000668561
0.000624457
0.000553003
0.000417546
0.000200941
4.59772e-05
6.18116e-05
7.32064e-05
7.95248e-05
8.30686e-05
8.54523e-05
8.90333e-05
9.6492e-05
0.000108962
0.000126447
0.000149984
0.000180466
0.000217123
0.00025912
0.000306371
0.000359167
0.000419113
0.000485761
0.00055109
0.00061164
0.00066835
0.000709776
0.000738179
0.000757861
0.00076938
0.000773446
0.000771993
0.000763585
0.000748611
0.000725988
0.000692996
0.000644381
0.000563791
0.000412939
0.000172693
4.95141e-05
6.30255e-05
7.38884e-05
8.06516e-05
8.52387e-05
9.0073e-05
9.87169e-05
0.000114435
0.000137596
0.000168056
0.000206383
0.000250916
0.000299008
0.000349272
0.000401732
0.000458639
0.000522159
0.000588169
0.000647407
0.000701158
0.000751328
0.000786542
0.000810906
0.000828912
0.000835006
0.000834065
0.000822218
0.000805142
0.000785813
0.000761561
0.000727973
0.00067766
0.000591976
0.000427979
0.000170425
4.97383e-05
6.38205e-05
7.46131e-05
8.16865e-05
8.75536e-05
9.5785e-05
0.000110736
0.000134555
0.000166364
0.000205808
0.000251306
0.000299504
0.000347875
0.000395173
0.000442701
0.000495755
0.000557404
0.000620749
0.000679781
0.000738052
0.000794428
0.000840367
0.000873948
0.000891364
0.000893982
0.000885563
0.000865084
0.00083816
0.000809429
0.000786624
0.000763472
0.000723935
0.000649204
0.000481642
0.000192744
4.58299e-05
6.32169e-05
7.51574e-05
8.40402e-05
9.24611e-05
0.000104684
0.000123856
0.000149494
0.000180934
0.00021835
0.00026018
0.000303485
0.000347017
0.000391748
0.000436297
0.000485115
0.000544536
0.000609583
0.000671536
0.000731077
0.00078966
0.000840183
0.000878289
0.000902564
0.000909994
0.00090371
0.000881557
0.000847003
0.000810868
0.000787773
0.000777098
0.000762818
0.000712243
0.000566682
0.000267286
3.40063e-05
5.72674e-05
7.33762e-05
8.34872e-05
9.25959e-05
0.00010484
0.000122711
0.000146616
0.000176156
0.00021127
0.000250561
0.00029119
0.000331019
0.000368941
0.000405806
0.000443427
0.00048542
0.000533275
0.000586428
0.000640164
0.000691669
0.000744614
0.000798395
0.000845296
0.000877582
0.000888643
0.000877091
0.000840135
0.000785761
0.000765135
0.000777451
0.000783199
0.000762804
0.000680237
0.000467981
2.11723e-05
4.73508e-05
6.72854e-05
8.08193e-05
9.17783e-05
0.000103786
0.0001194
0.000139401
0.000163776
0.000192493
0.000224719
0.000258869
0.000293705
0.000328322
0.000362505
0.000396928
0.000432832
0.000470299
0.000508397
0.000548398
0.000590001
0.000628003
0.000661047
0.000687044
0.000705636
0.000716466
0.000719997
0.000720496
0.000728762
0.000740724
0.000772064
0.000785604
0.000765799
0.000686682
0.00053907
1.40261e-05
3.84733e-05
5.87832e-05
7.41067e-05
8.64229e-05
9.84906e-05
0.000112593
0.000129665
0.000149916
0.000173361
0.000199718
0.000228386
0.000258789
0.000290459
0.000323072
0.000356349
0.000389915
0.000423485
0.000456388
0.000488767
0.000519894
0.000547524
0.00057353
0.000600776
0.000628693
0.000653441
0.000675148
0.000704157
0.000738579
0.000779186
0.000820112
0.000813963
0.000772677
0.000665984
0.000509104
1.42201e-05
3.85738e-05
5.88709e-05
7.44493e-05
8.69104e-05
9.92713e-05
0.000113671
0.000131025
0.000151934
0.000176227
0.000203295
0.000232366
0.000262693
0.00029387
0.000325347
0.000355165
0.000382764
0.000407432
0.000429262
0.000451404
0.000482362
0.00052883
0.000584179
0.000643815
0.000702014
0.000759231
0.000812648
0.000856646
0.000889933
0.000898567
0.000875687
0.000827919
0.000747262
0.00058635
0.000326428
1.8491e-05
3.99193e-05
6.02922e-05
7.7458e-05
9.24575e-05
0.000107212
0.000123738
0.000142808
0.000164081
0.000187295
0.000212424
0.000239638
0.000269204
0.000300936
0.000334005
0.000371895
0.000417466
0.000470401
0.000525587
0.000578363
0.000626862
0.000667575
0.000710267
0.000758053
0.000810498
0.00085917
0.000898218
0.000924133
0.000926071
0.00091129
0.000876939
0.000821494
0.000721635
0.000525351
0.000224748
2.61558e-05
4.56571e-05
6.56869e-05
8.3511e-05
9.98687e-05
0.00011699
0.000136755
0.000160137
0.000187406
0.000218494
0.000252997
0.000290315
0.000329703
0.000370625
0.000413344
0.000454801
0.000494913
0.000532903
0.000564453
0.000590135
0.000613078
0.000649366
0.000697222
0.000756443
0.000814564
0.00086638
0.000907512
0.000934458
0.000940215
0.000929131
0.000895741
0.000833234
0.000721854
0.000522174
0.000220418
3.13218e-05
5.1167e-05
7.09414e-05
8.97437e-05
0.000108528
0.000129227
0.000153176
0.000180765
0.000211575
0.00024465
0.000278835
0.000312497
0.00034533
0.000377263
0.000409246
0.000442202
0.000469376
0.000478551
0.000469933
0.000460178
0.000471574
0.000522599
0.000599197
0.000684947
0.000770788
0.000846644
0.000906542
0.000945588
0.000962859
0.000959683
0.000933068
0.000879451
0.000778635
0.000587192
0.000310205
2.80723e-05
5.15873e-05
7.33019e-05
9.38628e-05
0.000114381
0.000136377
0.000160768
0.000187616
0.000216437
0.000246492
0.00027709
0.000307643
0.000336851
0.000363612
0.000386568
0.000403283
0.000413565
0.000412971
0.000409311
0.000417509
0.000454332
0.000516187
0.000595173
0.000682554
0.000768552
0.000844465
0.000905091
0.000947036
0.000969367
0.000969562
0.000947491
0.000896721
0.000799124
0.000615233
0.000374921
2.49984e-05
5.27429e-05
7.73582e-05
9.93277e-05
0.000120335
0.000142367
0.000166493
0.000192686
0.000220257
0.00024822
0.000275566
0.000299759
0.000321149
0.000339481
0.000354479
0.000366519
0.000378272
0.000399029
0.000447943
0.000506378
0.000570388
0.000638094
0.000706572
0.00077538
0.000841855
0.000900158
0.000946966
0.000980155
0.000993846
0.00098755
0.000955845
0.000899077
0.000798333
0.000612716
0.000362007
2.97757e-05
5.61394e-05
8.22236e-05
0.00010618
0.000129207
0.00015303
0.000178196
0.000204142
0.000229927
0.000254931
0.000279201
0.000303533
0.000325723
0.000349241
0.000382504
0.000424172
0.000469674
0.000516812
0.000552704
0.000590753
0.000634186
0.000687245
0.000748661
0.000813155
0.000877041
0.000936118
0.000981085
0.00100593
0.00100856
0.000993642
0.000956668
0.00089359
0.000780723
0.000576216
0.000273283
4.3104e-05
6.79833e-05
9.60096e-05
0.000122777
0.000148439
0.00017453
0.000201499
0.000229117
0.000257098
0.000285206
0.000313328
0.000342489
0.000375282
0.000410096
0.000439994
0.000468043
0.000494424
0.000521378
0.000548625
0.000576593
0.000611257
0.000662429
0.000730424
0.000802635
0.00087442
0.000936799
0.000983426
0.00101104
0.00101917
0.00100998
0.000972448
0.000902131
0.000776914
0.000565943
0.000272057
4.97721e-05
7.67453e-05
0.00010526
0.000133672
0.000161726
0.000190458
0.000220076
0.000250095
0.000279805
0.000308255
0.000335102
0.000360636
0.0003854
0.000408526
0.000429977
0.000452007
0.00048043
0.00051256
0.000540607
0.000561797
0.000576573
0.000588709
0.000625268
0.000699337
0.000787728
0.000875016
0.000948255
0.00099935
0.0010227
0.00102468
0.0010054
0.000951429
0.000844255
0.000635886
0.000326039
4.75921e-05
7.99875e-05
0.000112533
0.000142947
0.000171457
0.000199693
0.000228149
0.000256085
0.000282789
0.000308373
0.000333699
0.000356623
0.00037576
0.000391118
0.000410345
0.000446641
0.000497603
0.000546279
0.00058194
0.000595233
0.000589676
0.000579905
0.000596882
0.000650569
0.000731713
0.000823649
0.000908202
0.000973448
0.00101417
0.00102332
0.00100654
0.000963363
0.000878421
0.000698713
0.000409224
3.6391e-05
7.73026e-05
0.000112185
0.000142758
0.000171023
0.000198816
0.000226613
0.000253697
0.000279107
0.000301973
0.000321033
0.000337143
0.000350503
0.00036741
0.000401682
0.000453144
0.000507323
0.000553613
0.000585075
0.000595872
0.000588228
0.000575695
0.000576794
0.00061854
0.000698943
0.000800205
0.0008964
0.000967799
0.00100897
0.00102078
0.0010082
0.000968039
0.00088517
0.000715703
0.000441389
2.41756e-05
6.76038e-05
0.000107253
0.000140231
0.00016899
0.000195829
0.000221808
0.000246437
0.000268824
0.000288596
0.000305503
0.000319792
0.000334384
0.000359527
0.000402325
0.000455396
0.000505359
0.000546334
0.000575482
0.000590951
0.000589168
0.000579264
0.000575105
0.000578944
0.000642691
0.000742826
0.000850339
0.000935293
0.000989501
0.0010095
0.0010044
0.000972869
0.000901396
0.000741143
0.000457291
1.31786e-05
5.19796e-05
9.29129e-05
0.000129243
0.000159138
0.000185027
0.000209161
0.00023183
0.000252303
0.000270291
0.000285963
0.000299639
0.000314496
0.000342673
0.000386023
0.000435767
0.000483411
0.000526863
0.000565898
0.000597792
0.000615152
0.000611792
0.000583347
0.00053519
0.000552266
0.000638426
0.000776286
0.000887156
0.00096114
0.000996174
0.000999932
0.000976902
0.000916963
0.000779245
0.000522359
4.33331e-06
3.21467e-05
6.6157e-05
0.000102723
0.000137702
0.000167436
0.000191942
0.000212734
0.000230973
0.000246966
0.000260973
0.000273188
0.000285207
0.000304874
0.000334168
0.000373288
0.000416454
0.000457726
0.000494953
0.000526937
0.000549719
0.000552043
0.000532029
0.000454267
0.00044581
0.000535271
0.000673744
0.000819904
0.000926763
0.000983702
0.000997859
0.000979217
0.000922449
0.000799423
0.000611237
1.88438e-06
1.58432e-05
3.45822e-05
5.91704e-05
8.87862e-05
0.000120827
0.000151515
0.000178045
0.000199471
0.000216724
0.000230883
0.000242484
0.000251621
0.000261154
0.000274837
0.000294722
0.000320668
0.000348326
0.000374577
0.00038784
0.000388817
0.000383498
0.000369686
0.000379948
0.00043169
0.00053248
0.000671395
0.000812427
0.000921372
0.000981323
0.000994786
0.000975772
0.00091927
0.000800239
0.000628785
2.48238e-06
1.05231e-05
1.8749e-05
2.97441e-05
4.57701e-05
6.74951e-05
9.43572e-05
0.000123326
0.000150392
0.000173439
0.000193047
0.000209883
0.000223944
0.000235236
0.000244502
0.000252081
0.000257019
0.000259055
0.00025923
0.000263117
0.000276121
0.000304632
0.000355789
0.000442497
0.000569468
0.00071316
0.00083717
0.000922639
0.000973492
0.000997092
0.000994256
0.000965089
0.000900045
0.000771881
0.000613178
4.7373e-06
1.68903e-05
2.52371e-05
3.04979e-05
3.56688e-05
4.52004e-05
6.0804e-05
8.14299e-05
0.000104249
0.000125884
0.000144678
0.00016088
0.000175279
0.000187526
0.000197315
0.000204583
0.000209622
0.000216873
0.000239557
0.000283438
0.00035521
0.000453445
0.000572084
0.000695364
0.000803025
0.000883639
0.000939905
0.000979089
0.00100277
0.001006
0.000992421
0.00095096
0.000876748
0.000729893
0.00053248
9.66069e-06
3.49957e-05
5.01494e-05
5.72756e-05
6.10042e-05
6.69631e-05
7.92247e-05
9.5801e-05
0.000113952
0.000133045
0.00015087
0.000166998
0.000182721
0.000200666
0.0002278
0.000276399
0.000346018
0.000429581
0.000511873
0.000593299
0.000675486
0.000750533
0.000813118
0.000861781
0.000900363
0.000934211
0.000966147
0.000993409
0.00101031
0.00100838
0.000984882
0.000937069
0.000853382
0.000688801
0.000456099
1.1247e-05
5.59995e-05
8.42868e-05
0.00010247
0.000117876
0.000134328
0.000153741
0.00017565
0.000199719
0.000227232
0.000260808
0.000299854
0.000343801
0.000394253
0.000446462
0.000495575
0.000540618
0.000587157
0.000637578
0.000689816
0.000737741
0.000784611
0.00083359
0.000884913
0.000935304
0.000980686
0.0010161
0.00103471
0.0010331
0.00101647
0.000981896
0.000927243
0.000834252
0.000657409
0.000402894
2.61845e-05
0.000101689
0.000145637
0.000171904
0.000193383
0.000214773
0.000237359
0.000261724
0.000289065
0.000319238
0.0003501
0.000379562
0.000408936
0.000439874
0.000473135
0.000508383
0.00054764
0.000593333
0.000644452
0.000698321
0.000754411
0.000813364
0.000871749
0.000926743
0.000974853
0.00101122
0.00103213
0.00103972
0.00103544
0.00101643
0.000979629
0.000919606
0.000817552
0.000630923
0.00035794
3.95023e-05
0.000115827
0.000162442
0.000191402
0.000213668
0.000233285
0.000252177
0.000271279
0.000290864
0.000310636
0.000331872
0.000355872
0.000382782
0.000412592
0.000446501
0.000485596
0.000531407
0.000583287
0.000637784
0.000694316
0.000753775
0.000814118
0.000873636
0.000929307
0.000977794
0.00101609
0.00104215
0.00105143
0.00104506
0.00102149
0.000980906
0.000919086
0.000814706
0.000629003
0.000355442
3.66831e-05
0.0001125
0.000154789
0.000180753
0.000198761
0.000209165
0.000215824
0.000222819
0.000233204
0.000248875
0.000268565
0.000290584
0.000315132
0.000344092
0.000380016
0.000423545
0.000473889
0.000529356
0.000588991
0.000652469
0.000719044
0.000787218
0.000854414
0.000917426
0.000972186
0.00101488
0.00104256
0.00105233
0.00104781
0.00102629
0.000986999
0.000923934
0.000816524
0.000630856
0.000368825
2.18982e-05
8.22458e-05
0.00011416
0.000133244
0.000144987
0.000149772
0.000153634
0.000161975
0.000176874
0.000195326
0.000215151
0.000238296
0.000266486
0.000301561
0.000343985
0.000393884
0.000450744
0.000511792
0.000573309
0.000635425
0.000699445
0.000765966
0.000832038
0.000895793
0.000953918
0.00100232
0.00103669
0.00105148
0.00104978
0.00103021
0.000993122
0.000933474
0.000830713
0.000653832
0.000402017
1.10577e-05
5.0211e-05
7.36662e-05
8.75087e-05
9.54536e-05
9.95021e-05
0.000105355
0.000119638
0.000141831
0.000167617
0.000195592
0.000225219
0.000258463
0.000296778
0.000340744
0.000391304
0.000448118
0.000508277
0.000569274
0.000631339
0.000694731
0.000758393
0.000822419
0.000885096
0.000943423
0.000993152
0.00102971
0.00104792
0.0010486
0.00103041
0.000993501
0.000934659
0.000837517
0.000672182
0.000432474
4.33833e-06
2.42293e-05
3.84691e-05
4.79541e-05
5.54322e-05
6.45611e-05
8.11071e-05
0.000105923
0.000135262
0.000165812
0.00019741
0.000231181
0.000268166
0.000308924
0.000354972
0.000407782
0.00046477
0.000522354
0.000579584
0.00063764
0.000697289
0.000758691
0.000821066
0.00088269
0.000940661
0.000990696
0.00102713
0.00104666
0.00104664
0.00102635
0.000988997
0.000931604
0.000838034
0.000678047
0.000462656
1.28401e-06
1.156e-05
2.14515e-05
3.24694e-05
4.73377e-05
6.90772e-05
9.8047e-05
0.000131467
0.000166064
0.000200669
0.000235902
0.000272637
0.000311407
0.000353988
0.00040235
0.000454558
0.000507477
0.000560153
0.000612847
0.000666953
0.000722436
0.000779032
0.000836218
0.000892568
0.000945524
0.000992051
0.00102709
0.00104419
0.0010419
0.0010203
0.000982213
0.000924601
0.000831615
0.000677025
0.000466581
1.75109e-06
2.13774e-05
4.18756e-05
6.56096e-05
9.31924e-05
0.000123765
0.000155331
0.000186581
0.000217505
0.000248764
0.000281033
0.000314889
0.000352119
0.000394752
0.000441483
0.000489461
0.000537738
0.000586618
0.000636827
0.000689653
0.000745082
0.000802655
0.000860717
0.000916279
0.000965666
0.00100564
0.00103226
0.00104291
0.00103664
0.00101242
0.000973055
0.000915206
0.000822667
0.000668262
0.000464049
3.77503e-06
3.80547e-05
7.03163e-05
0.00010173
0.000132061
0.00016105
0.000189114
0.00021705
0.0002455
0.00027481
0.00030546
0.000339337
0.000378502
0.00042181
0.00046662
0.000511899
0.000557979
0.000605447
0.000655104
0.00070798
0.00076384
0.00082155
0.000878797
0.000932349
0.000978766
0.00101493
0.00103711
0.00104181
0.00103053
0.00100333
0.000962405
0.000903612
0.000810256
0.000655041
0.000448256
5.34921e-06
4.74991e-05
8.54341e-05
0.000119786
0.000150571
0.00017869
0.000205706
0.0002331
0.000261362
0.000290186
0.000321235
0.00035707
0.000396984
0.000438746
0.000481395
0.000524855
0.000569685
0.000617066
0.000668016
0.000723064
0.000781298
0.000840916
0.00089884
0.000951272
0.000994723
0.00102576
0.00104028
0.00103986
0.00102431
0.000995353
0.000954433
0.000895971
0.000802077
0.000645389
0.000431043
6.20062e-06
5.13377e-05
9.15393e-05
0.00012714
0.000157775
0.000185399
0.000212775
0.000240965
0.000269673
0.000298936
0.000330783
0.000366591
0.000404651
0.000443954
0.000484376
0.000526657
0.000571817
0.000620452
0.000672692
0.000729272
0.000789607
0.000851478
0.000910677
0.000962994
0.00100394
0.0010287
0.00103934
0.00103528
0.00101725
0.000987913
0.000948489
0.00089222
0.000801279
0.000644949
0.000423412
6.5286e-06
5.17462e-05
9.24376e-05
0.000128533
0.000159281
0.000187065
0.000214723
0.000243077
0.000271897
0.000301981
0.000334535
0.000369438
0.000406151
0.000444431
0.000484649
0.000527498
0.000573208
0.000622208
0.000675589
0.000734538
0.000797957
0.000863292
0.000923743
0.000972535
0.00100774
0.00102802
0.00103205
0.00102313
0.00100433
0.00097781
0.000942437
0.00088986
0.000800215
0.000645369
0.000423418
6.78634e-06
5.18349e-05
9.27902e-05
0.000129541
0.000161262
0.000189753
0.000217948
0.000247115
0.000277073
0.000307633
0.000339428
0.000373269
0.000409205
0.000447359
0.000487937
0.000530967
0.000576918
0.000626928
0.000682089
0.000743487
0.0008085
0.000871193
0.000927391
0.000972286
0.00100109
0.00101201
0.00101108
0.00100092
0.000986057
0.000966137
0.000936675
0.000889906
0.000805634
0.000655198
0.00042889
7.4614e-06
5.39901e-05
9.62162e-05
0.000133808
0.000166383
0.000195439
0.000223988
0.000253731
0.000284618
0.000316467
0.000348965
0.000382495
0.000417994
0.000455757
0.000495778
0.000538483
0.000584721
0.000635675
0.000691443
0.000751128
0.000812581
0.000871039
0.000920933
0.000956865
0.000977342
0.000983299
0.000979555
0.000972965
0.000965435
0.000953683
0.000930791
0.000890317
0.000815649
0.000670864
0.000440821
8.33449e-06
5.77197e-05
0.000102907
0.000143125
0.000177296
0.000207158
0.000236218
0.000266428
0.000297885
0.000330585
0.000364414
0.000399133
0.000434674
0.000471774
0.000511266
0.000553791
0.000600023
0.00064969
0.000702459
0.000757523
0.000812721
0.000863925
0.000905405
0.000933797
0.000947598
0.000948658
0.000942845
0.000941259
0.000943342
0.000941158
0.000925571
0.000892004
0.0008252
0.000685687
0.000459168
9.29911e-06
6.21048e-05
0.000110566
0.000154088
0.000191297
0.000223026
0.000253174
0.000284269
0.00031648
0.000349901
0.000384568
0.00042046
0.000457477
0.000495435
0.000534653
0.000575951
0.000619769
0.000666087
0.000714418
0.000763639
0.000810898
0.000852697
0.000884735
0.000904229
0.000910457
0.000905874
0.000901611
0.000908141
0.000922734
0.000929044
0.000919549
0.000891043
0.000829394
0.000697414
0.000480718
1.04096e-05
6.75992e-05
0.000119828
0.00016676
0.000207163
0.000241224
0.000272859
0.000305077
0.00033833
0.000372657
0.000408093
0.000444686
0.000482493
0.000521525
0.0005612
0.000600821
0.000640906
0.000682493
0.000724508
0.000765299
0.000803444
0.000834781
0.000856219
0.000866484
0.000866593
0.000861034
0.000863956
0.00088133
0.000904325
0.000916998
0.000911961
0.000886733
0.000829424
0.000698092
0.000486371
1.13138e-05
7.2623e-05
0.000128137
0.000177704
0.000220521
0.000257062
0.000291082
0.000325376
0.000360311
0.000396001
0.000432541
0.000469945
0.000508077
0.000546637
0.000585181
0.000623118
0.000659123
0.000693684
0.00072808
0.000761128
0.000789026
0.000808958
0.000819673
0.000821645
0.000818232
0.000820473
0.000837684
0.000867626
0.000896051
0.000910964
0.000907257
0.00088269
0.000824241
0.000694019
0.000482368
1.18608e-05
7.54289e-05
0.000132473
0.000183316
0.00022723
0.00026517
0.000301102
0.000337357
0.000374114
0.000411277
0.000448803
0.000486651
0.000524426
0.00056147
0.000597338
0.000631302
0.000663628
0.000693906
0.00072178
0.000745782
0.00076375
0.000773938
0.000776542
0.000774084
0.00077335
0.00078572
0.000815127
0.000854437
0.00088875
0.000906776
0.000903977
0.000878711
0.000819473
0.000688346
0.000475896
1.21006e-05
7.63266e-05
0.000134013
0.000184757
0.000227889
0.000266441
0.000304147
0.000342422
0.000380573
0.000418444
0.000455877
0.000492646
0.000528813
0.000564433
0.000598821
0.000631069
0.000660005
0.000684683
0.000705145
0.00072098
0.000730678
0.000733319
0.000730369
0.000726912
0.000733954
0.000759329
0.000802845
0.000850038
0.000886711
0.000904772
0.000901172
0.000875425
0.000816266
0.000687312
0.000477422
1.25173e-05
7.71997e-05
0.000134914
0.000185054
0.00022674
0.000265218
0.0003041
0.000342855
0.00038128
0.000419215
0.000456482
0.000492831
0.000527881
0.000561037
0.000591724
0.000619265
0.000642848
0.000661658
0.000675576
0.000684314
0.000686953
0.000683983
0.000679826
0.000684435
0.000706316
0.000750624
0.000801882
0.000849419
0.000885224
0.000902079
0.000897547
0.000870604
0.000810344
0.000682982
0.000484424
1.26424e-05
7.71993e-05
0.000134039
0.000181699
0.000222441
0.000261144
0.000300178
0.000338935
0.000377004
0.000414065
0.000449822
0.000483957
0.000516089
0.000545749
0.00057235
0.00059519
0.000613468
0.000626497
0.000634141
0.000636251
0.000633112
0.000630521
0.000636037
0.000657329
0.000699761
0.000749508
0.00080171
0.000848787
0.000881815
0.000897251
0.00089195
0.000863985
0.000802501
0.000675137
0.000485267
1.25115e-05
7.72467e-05
0.000132495
0.000177681
0.000216978
0.000255157
0.00029358
0.000331499
0.000368424
0.000403975
0.000437787
0.000469449
0.000498468
0.000524254
0.000546128
0.000563347
0.000575163
0.000581221
0.000581268
0.000577558
0.000575869
0.000583442
0.000607932
0.000650966
0.000700988
0.000754287
0.000805372
0.000849209
0.000880382
0.000892965
0.000885675
0.0008558
0.000792407
0.000663553
0.000480594
1.1966e-05
7.67764e-05
0.000130969
0.000174271
0.000212031
0.000249787
0.000288164
0.000325318
0.000360839
0.000394357
0.00042548
0.000453745
0.000478604
0.000499425
0.000515522
0.00052623
0.00053069
0.000530144
0.00052618
0.000523921
0.000531752
0.000558082
0.000603997
0.000656907
0.000712715
0.000767115
0.00081604
0.000855135
0.000880354
0.000888464
0.000878117
0.000845835
0.000779551
0.000646075
0.000458932
1.0674e-05
7.19765e-05
0.000123751
0.000165726
0.000203136
0.000240769
0.000278333
0.000314226
0.000348021
0.000379313
0.000407656
0.000432537
0.000453366
0.000469496
0.000480264
0.000485631
0.000486183
0.000482999
0.000479651
0.000485103
0.00051075
0.000552705
0.000602592
0.000656981
0.000713141
0.000767996
0.000817235
0.000855864
0.000878723
0.000883831
0.000870794
0.000836335
0.000766705
0.000628679
0.000425674
8.80012e-06
6.09607e-05
0.000107181
0.000146601
0.000183701
0.000221093
0.000257576
0.000292421
0.000325044
0.000354925
0.000381541
0.000404335
0.000422682
0.000435922
0.000444233
0.000447808
0.000448051
0.000446447
0.000447728
0.00046128
0.000489934
0.000529906
0.000579285
0.000635652
0.00069563
0.000754796
0.000807673
0.00084856
0.000872989
0.000878136
0.000864674
0.000830418
0.000761199
0.000627426
0.000421709
7.21802e-06
4.60189e-05
8.28961e-05
0.000117955
0.000153029
0.000188951
0.00022445