/*--------------------------------*- C++ -*----------------------------------*\
| =========                 |                                                 |
| \\      /  F ield         | OpenFOAM: The Open Source CFD Toolbox           |
|  \\    /   O peration     | Version:  v1906                                 |
|   \\  /    A nd           | Web:      www.OpenFOAM.com                      |
|    \\/     M anipulation  |                                                 |
\*---------------------------------------------------------------------------*/
FoamFile
{
    version     2.0;
    format      ascii;
    class       volScalarField;
    location    "1000";
    object      nut;
}
// * * * * * * * * * * * * * * * * * * * * * * * * * * * * * * * * * * * * * //

dimensions      [0 2 -1 0 0 0 0];


internalField   nonuniform List<scalar> 
78750
(
4.05717e-08
1.69564e-06
2.22246e-06
2.468e-06
2.66588e-06
2.85187e-06
3.03421e-06
3.21189e-06
3.39109e-06
3.5739e-06
3.76265e-06
3.95849e-06
4.16205e-06
4.37362e-06
4.5933e-06
4.82089e-06
5.05564e-06
5.29607e-06
5.54155e-06
5.79097e-06
6.04219e-06
6.29307e-06
6.54105e-06
6.78319e-06
7.01712e-06
7.24195e-06
7.43592e-06
7.54261e-06
6.42759e-06
5.38119e-06
4.70382e-06
4.06507e-06
3.13035e-06
1.85931e-06
3.3267e-08
8.86607e-08
3.61539e-06
1.7677e-06
2.35005e-06
4.75838e-06
7.63937e-06
7.74482e-06
7.87696e-06
8.03519e-06
8.21836e-06
8.42678e-06
8.66444e-06
8.94377e-06
9.29123e-06
9.75276e-06
1.03951e-05
1.12861e-05
1.25031e-05
1.4108e-05
1.38544e-05
1.41427e-05
1.56442e-05
1.9051e-05
2.51434e-05
3.05477e-05
2.41254e-05
1.42771e-05
1.15899e-05
1.17983e-05
1.30326e-05
1.49562e-05
1.64358e-05
1.32758e-05
4.13824e-06
9.3959e-08
1.09927e-07
5.53282e-06
1.57381e-06
1.30536e-06
1.72597e-06
2.80898e-06
4.91749e-06
4.9085e-06
5.07325e-06
5.39629e-06
5.88185e-06
6.5415e-06
7.38877e-06
8.43365e-06
9.67582e-06
1.11075e-05
1.29937e-05
1.52511e-05
1.77982e-05
2.05509e-05
2.34276e-05
2.6356e-05
2.91757e-05
3.18953e-05
1.92362e-05
1.35143e-05
1.19705e-05
1.22032e-05
1.30875e-05
1.44967e-05
1.66895e-05
1.94308e-05
1.79433e-05
4.84187e-06
1.20546e-07
1.20303e-07
4.04947e-06
1.92074e-06
1.21237e-06
1.3068e-06
1.94611e-06
3.55454e-06
4.75032e-06
5.09123e-06
5.64026e-06
6.47343e-06
7.71722e-06
9.38702e-06
1.14774e-05
1.39932e-05
1.6914e-05
1.99849e-05
2.31773e-05
2.64126e-05
2.96043e-05
3.26811e-05
3.37368e-05
2.3797e-05
1.42201e-05
1.15593e-05
1.27702e-05
1.42607e-05
1.57696e-05
1.74788e-05
1.95421e-05
2.20766e-05
2.32746e-05
1.70202e-05
4.60349e-06
1.28607e-07
1.24644e-07
3.46029e-06
2.04405e-06
1.15872e-06
1.18344e-06
1.78344e-06
3.57091e-06
7.34812e-06
8.98561e-06
1.09181e-05
1.30599e-05
1.53494e-05
1.78281e-05
2.05151e-05
2.3365e-05
2.62972e-05
2.92363e-05
3.2121e-05
3.49063e-05
3.49113e-05
2.21827e-05
1.80455e-05
1.35187e-05
1.26875e-05
1.58624e-05
1.78762e-05
1.93928e-05
2.06562e-05
2.19872e-05
2.35171e-05
2.53378e-05
2.5754e-05
1.78313e-05
4.70171e-06
1.38112e-07
1.31823e-07
2.79489e-06
2.61455e-06
1.38972e-06
1.54389e-06
2.72702e-06
5.86608e-06
1.38449e-05
1.63252e-05
1.8899e-05
2.15709e-05
2.09174e-05
2.24667e-05
2.71122e-05
3.27086e-05
3.51519e-05
3.7527e-05
3.27544e-05
2.29852e-05
2.13447e-05
1.61744e-05
1.41898e-05
1.75158e-05
2.05268e-05
2.17589e-05
2.2333e-05
2.31217e-05
2.44467e-05
2.61449e-05
2.78306e-05
2.94415e-05
2.84386e-05
1.72382e-05
4.63153e-06
1.4918e-07
1.32651e-07
2.55465e-06
3.3043e-06
1.73877e-06
2.00698e-06
3.59324e-06
8.68934e-06
1.83979e-05
2.09449e-05
2.35609e-05
2.35046e-05
2.60738e-05
3.12053e-05
3.33486e-05
3.53599e-05
3.72634e-05
3.73999e-05
2.2956e-05
1.99155e-05
2.1242e-05
1.80171e-05
1.74371e-05
2.01952e-05
2.13378e-05
2.20531e-05
2.30679e-05
2.41265e-05
2.54511e-05
2.73368e-05
2.93589e-05
3.11745e-05
2.96616e-05
1.70509e-05
4.58393e-06
1.7434e-07
1.32255e-07
2.36818e-06
4.52493e-06
2.24667e-06
2.51519e-06
4.33103e-06
1.01658e-05
2.07692e-05
2.30069e-05
2.52581e-05
2.74488e-05
2.95392e-05
3.15098e-05
3.33747e-05
3.51724e-05
3.6815e-05
2.70784e-05
2.13033e-05
2.17507e-05
1.96166e-05
1.73907e-05
1.85074e-05
1.93302e-05
1.9841e-05
2.04627e-05
2.17357e-05
2.38953e-05
2.62029e-05
2.8746e-05
3.13498e-05
3.32897e-05
3.12173e-05
1.73026e-05
4.71181e-06
2.00451e-07
1.29789e-07
2.26719e-06
5.8845e-06
2.70427e-06
2.83311e-06
4.51364e-06
9.50674e-06
2.14321e-05
2.32752e-05
2.52161e-05
2.71842e-05
2.90159e-05
3.06705e-05
3.21148e-05
3.33243e-05
3.44206e-05
2.54563e-05
2.08879e-05
2.07067e-05
1.88227e-05
1.65883e-05
1.68492e-05
1.77751e-05
1.89438e-05
2.015e-05
2.12531e-05
2.28472e-05
2.53359e-05
2.87723e-05
3.27228e-05
3.62084e-05
3.49771e-05
1.91519e-05
5.0722e-06
2.26135e-07
1.24996e-07
2.14121e-06
7.93734e-06
3.31713e-06
3.04402e-06
4.20732e-06
7.51788e-06
1.6771e-05
2.2839e-05
2.42835e-05
2.56863e-05
2.70639e-05
2.83613e-05
2.9563e-05
3.07038e-05
3.18752e-05
2.55964e-05
2.12301e-05
1.93147e-05
1.93839e-05
1.77942e-05
1.65363e-05
1.73235e-05
1.83858e-05
1.95063e-05
2.07939e-05
2.2447e-05
2.49666e-05
2.87561e-05
3.37628e-05
3.87266e-05
3.83998e-05
2.10811e-05
5.45094e-06
2.41584e-07
1.1924e-07
2.03739e-06
9.02725e-06
3.96632e-06
3.20056e-06
3.85843e-06
5.98571e-06
1.16e-05
2.15536e-05
2.26741e-05
2.39093e-05
2.52219e-05
2.65922e-05
2.80373e-05
2.96152e-05
3.13768e-05
2.81573e-05
2.30778e-05
2.06916e-05
2.12168e-05
1.94327e-05
1.74729e-05
1.77688e-05
1.82259e-05
1.88452e-05
1.98376e-05
2.15226e-05
2.43462e-05
2.86624e-05
3.41923e-05
3.92562e-05
3.85717e-05
2.10198e-05
5.53491e-06
2.50847e-07
1.14027e-07
1.95611e-06
8.7933e-06
4.62276e-06
3.39707e-06
3.6714e-06
5.09857e-06
9.1584e-06
2.04208e-05
2.14802e-05
2.27844e-05
2.42976e-05
2.59978e-05
2.78775e-05
2.99319e-05
3.22878e-05
3.25951e-05
2.71926e-05
2.36572e-05
2.35291e-05
2.05943e-05
1.7801e-05
1.76774e-05
1.78382e-05
1.80329e-05
1.88596e-05
2.08003e-05
2.39223e-05
2.86099e-05
3.455e-05
3.96087e-05
3.86582e-05
2.10215e-05
5.60772e-06
2.68988e-07
1.09556e-07
1.91238e-06
8.45502e-06
5.09792e-06
3.54945e-06
3.62189e-06
4.81494e-06
8.39368e-06
1.8651e-05
2.0846e-05
2.23088e-05
2.40679e-05
2.60652e-05
2.83008e-05
3.07934e-05
3.34811e-05
3.635e-05
3.14788e-05
2.63815e-05
2.5176e-05
2.15215e-05
1.8193e-05
1.75634e-05
1.73473e-05
1.73769e-05
1.78724e-05
1.93666e-05
2.24893e-05
2.75627e-05
3.45924e-05
4.08046e-05
4.05152e-05
2.20611e-05
5.7532e-06
3.00756e-07
1.04652e-07
1.87428e-06
8.16853e-06
5.51486e-06
3.71755e-06
3.66512e-06
4.72098e-06
7.97278e-06
1.72119e-05
2.06666e-05
2.22515e-05
2.41594e-05
2.63548e-05
2.87707e-05
3.13647e-05
3.40994e-05
3.69422e-05
3.55888e-05
2.96048e-05
2.50324e-05
2.34987e-05
2.02248e-05
1.74494e-05
1.67816e-05
1.65145e-05
1.66756e-05
1.76017e-05
2.02169e-05
2.56053e-05
3.33124e-05
4.0538e-05
4.10719e-05
2.27064e-05
5.84218e-06
3.42981e-07
9.84648e-08
1.825e-06
7.7179e-06
6.06394e-06
3.93837e-06
3.73591e-06
4.67104e-06
7.60226e-06
1.55573e-05
2.07158e-05
2.23603e-05
2.43541e-05
2.66066e-05
2.9051e-05
3.16353e-05
3.4322e-05
3.70856e-05
3.74148e-05
3.11925e-05
2.64463e-05
2.42751e-05
2.11549e-05
1.82653e-05
1.69908e-05
1.6385e-05
1.63395e-05
1.69979e-05
1.86879e-05
2.24208e-05
2.91719e-05
3.76098e-05
4.07007e-05
2.31691e-05
5.94836e-06
3.99862e-07
9.15533e-08
1.76879e-06
7.12537e-06
6.73442e-06
4.22886e-06
3.85216e-06
4.60457e-06
7.06538e-06
1.34514e-05
2.08349e-05
2.25099e-05
2.4533e-05
2.68164e-05
2.92804e-05
3.1862e-05
3.45176e-05
3.72232e-05
3.43198e-05
2.89552e-05
2.5081e-05
2.3054e-05
2.07514e-05
1.87035e-05
1.7803e-05
1.74603e-05
1.75704e-05
1.82648e-05
1.97321e-05
2.26829e-05
2.87717e-05
3.7143e-05
4.08518e-05
2.41757e-05
6.32262e-06
4.37247e-07
8.57999e-08
1.71242e-06
6.46837e-06
7.531e-06
4.61528e-06
4.01426e-06
4.60127e-06
6.74882e-06
1.21831e-05
2.15551e-05
2.33459e-05
2.54442e-05
2.77398e-05
3.01639e-05
3.27013e-05
3.53869e-05
3.36518e-05
2.86308e-05
2.47881e-05
2.39903e-05
2.24899e-05
2.01346e-05
1.93324e-05
1.94306e-05
1.99769e-05
2.0761e-05
2.18943e-05
2.36235e-05
2.64384e-05
3.09533e-05
3.71682e-05
4.02831e-05
2.45133e-05
6.39001e-06
4.37601e-07
8.46014e-08
1.67951e-06
6.21733e-06
8.07295e-06
5.12271e-06
4.34621e-06
4.85598e-06
6.8974e-06
1.15377e-05
1.82195e-05
2.20694e-05
2.40213e-05
2.70818e-05
3.14312e-05
3.49933e-05
3.61099e-05
3.4555e-05
3.08756e-05
2.73337e-05
2.69208e-05
2.20333e-05
1.93972e-05
2.06129e-05
2.16473e-05
2.26834e-05
2.42225e-05
2.64396e-05
2.93935e-05
3.29085e-05
3.67259e-05
4.01899e-05
3.95087e-05
2.22112e-05
6.29557e-06
3.95118e-07
8.73909e-08
1.68492e-06
5.81289e-06
8.72159e-06
5.68902e-06
4.79546e-06
5.40497e-06
7.86826e-06
1.31704e-05
1.79816e-05
2.0758e-05
2.46534e-05
3.05578e-05
3.67561e-05
4.18638e-05
4.3232e-05
3.72917e-05
3.04714e-05
2.91493e-05
2.14637e-05
1.81651e-05
2.06459e-05
2.27641e-05
2.43269e-05
2.60151e-05
2.79715e-05
3.06905e-05
3.43392e-05
3.82948e-05
4.17223e-05
4.28503e-05
3.79966e-05
2.0115e-05
5.95149e-06
3.39834e-07
9.41086e-08
1.67924e-06
5.72427e-06
9.03633e-06
6.48861e-06
5.84216e-06
7.21166e-06
1.13277e-05
1.76958e-05
2.19397e-05
2.56588e-05
3.2208e-05
3.98706e-05
4.75892e-05
5.18353e-05
4.4714e-05
3.25519e-05
2.53979e-05
2.55319e-05
2.09529e-05
2.00559e-05
2.5284e-05
2.70626e-05
2.75716e-05
2.8377e-05
3.05123e-05
3.36663e-05
3.79345e-05
4.16732e-05
4.39714e-05
4.3381e-05
3.61184e-05
1.78974e-05
5.72774e-06
3.35259e-07
9.45338e-08
1.61217e-06
5.37123e-06
9.58625e-06
7.60699e-06
7.54666e-06
1.02768e-05
1.68221e-05
2.31863e-05
2.74227e-05
3.3456e-05
4.12007e-05
5.0115e-05
5.8718e-05
5.71484e-05
4.08844e-05
2.78479e-05
2.68692e-05
2.68545e-05
2.30407e-05
2.41526e-05
2.83055e-05
3.0205e-05
3.06227e-05
3.09877e-05
3.13675e-05
3.17159e-05
3.22057e-05
3.54396e-05
4.21286e-05
4.26505e-05
3.64745e-05
1.75425e-05
5.57243e-06
3.78307e-07
8.71097e-08
1.55817e-06
4.97471e-06
1.0319e-05
9.69801e-06
1.00938e-05
1.42853e-05
2.20189e-05
2.77853e-05
3.19979e-05
3.83918e-05
4.74836e-05
5.52241e-05
6.0182e-05
6.47918e-05
4.65234e-05
3.15902e-05
2.68242e-05
2.91767e-05
2.92468e-05
2.78522e-05
2.88808e-05
2.99796e-05
3.12185e-05
3.11738e-05
3.02859e-05
2.882e-05
2.74788e-05
2.7142e-05
2.81e-05
3.48856e-05
3.92713e-05
1.85094e-05
5.64943e-06
5.22499e-07
6.4647e-08
1.38183e-06
4.00545e-06
9.61767e-06
1.02319e-05
1.11403e-05
1.5678e-05
2.21514e-05
2.74657e-05
3.21597e-05
3.81551e-05
4.59397e-05
5.32725e-05
5.74757e-05
5.96873e-05
5.15273e-05
4.02103e-05
3.15349e-05
2.72732e-05
2.98305e-05
3.30091e-05
3.09168e-05
3.05417e-05
3.11476e-05
3.12777e-05
2.97876e-05
2.64965e-05
2.24288e-05
1.92414e-05
1.9661e-05
2.50283e-05
3.56809e-05
3.03427e-05
7.13227e-06
9.09982e-07
4.02569e-08
1.21449e-06
3.26625e-06
8.07757e-06
1.10305e-05
1.20278e-05
1.41132e-05
1.83621e-05
2.29826e-05
2.71777e-05
3.15303e-05
3.54396e-05
3.8324e-05
3.99225e-05
3.88931e-05
3.56743e-05
3.11811e-05
2.93564e-05
2.82233e-05
2.56133e-05
3.11468e-05
3.49785e-05
2.9979e-05
2.99015e-05
3.00553e-05
2.95893e-05
2.75845e-05
2.36122e-05
1.86824e-05
1.49482e-05
1.45701e-05
2.13566e-05
3.64716e-05
8.00235e-06
1.04627e-06
2.6672e-08
1.12932e-06
2.84963e-06
6.78403e-06
1.07178e-05
1.17029e-05
1.31253e-05
1.61985e-05
1.9786e-05
2.31806e-05
2.61045e-05
2.83338e-05
2.95592e-05
2.98304e-05
2.93537e-05
2.84361e-05
2.7302e-05
2.50652e-05
2.22738e-05
2.03817e-05
2.44265e-05
2.68408e-05
2.32476e-05
2.36837e-05
2.43673e-05
2.42709e-05
2.37256e-05
2.32315e-05
2.23952e-05
2.09358e-05
2.0833e-05
2.25773e-05
3.1319e-05
9.19956e-06
9.88601e-07
2.70411e-08
1.28055e-06
3.25958e-06
7.1791e-06
1.14006e-05
1.31751e-05
1.45267e-05
1.66586e-05
1.95092e-05
2.25961e-05
2.54029e-05
2.74363e-05
2.8412e-05
2.83926e-05
2.76374e-05
2.63327e-05
2.47102e-05
2.26476e-05
2.05473e-05
1.95324e-05
2.04403e-05
2.05921e-05
1.95217e-05
1.93591e-05
1.97455e-05
2.07683e-05
2.23201e-05
2.44895e-05
2.73114e-05
2.98192e-05
3.16208e-05
3.70182e-05
2.9957e-05
7.39524e-06
6.37158e-07
3.51604e-08
1.36184e-06
3.4425e-06
7.277e-06
1.15054e-05
1.37956e-05
1.55706e-05
1.77438e-05
2.02933e-05
2.29919e-05
2.55623e-05
2.77055e-05
2.91351e-05
2.96816e-05
2.92709e-05
2.80967e-05
2.59233e-05
2.38025e-05
2.50423e-05
1.97475e-05
1.56904e-05
1.63472e-05
1.69162e-05
1.71891e-05
1.84291e-05
2.01986e-05
2.2462e-05
2.53684e-05
2.88359e-05
3.27522e-05
3.50933e-05
3.24433e-05
1.80606e-05
5.73074e-06
4.41163e-07
4.97293e-08
1.46744e-06
3.9098e-06
7.66167e-06
1.10648e-05
1.36206e-05
1.60342e-05
1.87502e-05
2.19861e-05
2.56246e-05
2.98223e-05
3.4401e-05
3.86398e-05
4.17813e-05
4.28127e-05
3.9223e-05
2.93367e-05
1.99836e-05
1.79443e-05
1.23098e-05
1.10701e-05
1.3791e-05
1.50775e-05
1.75082e-05
2.01358e-05
2.32824e-05
2.6864e-05
3.07079e-05
3.43418e-05
3.66611e-05
3.59672e-05
2.88956e-05
1.46576e-05
5.27324e-06
4.32781e-07
5.95463e-08
1.47527e-06
4.09815e-06
8.09112e-06
1.15455e-05
1.45767e-05
1.78108e-05
2.14616e-05
2.58375e-05
3.08933e-05
3.64338e-05
4.24337e-05
4.8173e-05
5.1689e-05
4.80363e-05
3.4595e-05
2.22387e-05
1.5413e-05
1.34929e-05
1.04546e-05
9.46818e-06
1.16254e-05
1.39626e-05
1.74427e-05
2.23305e-05
2.74455e-05
3.26631e-05
3.86441e-05
4.42239e-05
4.7873e-05
4.75607e-05
3.79762e-05
1.70215e-05
5.55001e-06
6.08002e-07
5.33706e-08
1.41105e-06
3.81663e-06
8.07962e-06
1.22952e-05
1.56491e-05
1.892e-05
2.24592e-05
2.62979e-05
3.03564e-05
3.42536e-05
3.75419e-05
3.95723e-05
3.90985e-05
3.4794e-05
2.70269e-05
1.81269e-05
1.21015e-05
1.07542e-05
1.06125e-05
1.0232e-05
1.12427e-05
1.3633e-05
1.73698e-05
2.24104e-05
2.7885e-05
3.37311e-05
3.96972e-05
4.5403e-05
5.04437e-05
5.12522e-05
4.09716e-05
1.89764e-05
6.01977e-06
7.33078e-07
4.75291e-08
1.42063e-06
3.88499e-06
8.61649e-06
1.31207e-05
1.62007e-05
1.8907e-05
2.16276e-05
2.41722e-05
2.6189e-05
2.76084e-05
2.79626e-05
2.70058e-05
2.47873e-05
2.134e-05
1.55881e-05
1.09154e-05
9.43458e-06
1.06591e-05
1.18379e-05
1.27416e-05
1.48887e-05
1.76351e-05
2.02409e-05
2.28344e-05
2.66499e-05
3.13626e-05
3.61399e-05
4.15783e-05
4.59859e-05
4.66851e-05
3.9026e-05
1.91804e-05
6.14237e-06
7.07853e-07
5.66082e-08
1.53042e-06
4.12589e-06
8.69254e-06
1.29177e-05
1.59936e-05
1.8564e-05
2.08816e-05
2.30174e-05
2.44573e-05
2.50987e-05
2.49354e-05
2.31628e-05
1.75838e-05
1.20402e-05
1.14584e-05
1.13508e-05
1.00926e-05
1.07687e-05
1.26819e-05
1.4545e-05
1.66896e-05
1.95237e-05
2.31059e-05
2.75041e-05
3.27123e-05
3.63922e-05
3.88963e-05
4.16415e-05
4.42827e-05
4.43821e-05
3.58308e-05
1.66249e-05
5.54425e-06
5.35575e-07
8.19313e-08
1.6948e-06
4.71086e-06
9.52356e-06
1.35215e-05
1.65059e-05
1.9328e-05
2.18423e-05
2.40925e-05
2.60152e-05
2.60538e-05
2.25353e-05
1.74826e-05
1.42496e-05
1.18284e-05
1.29093e-05
1.1752e-05
1.15449e-05
1.48934e-05
1.52711e-05
1.55706e-05
1.68509e-05
1.91491e-05
2.20722e-05
2.54564e-05
2.94494e-05
3.58961e-05
4.35871e-05
4.6972e-05
4.60478e-05
4.2176e-05
3.0897e-05
1.46693e-05
5.26793e-06
5.33405e-07
9.45958e-08
1.73127e-06
4.97944e-06
1.04313e-05
1.4889e-05
1.8231e-05
2.14192e-05
2.4457e-05
2.67353e-05
2.82012e-05
2.59775e-05
2.04611e-05
1.47183e-05
1.11766e-05
1.29447e-05
1.40504e-05
1.30124e-05
1.52163e-05
1.60389e-05
1.5752e-05
1.54829e-05
1.57954e-05
1.74627e-05
2.08302e-05
2.53029e-05
3.04301e-05
3.56385e-05
4.08172e-05
4.6397e-05
5.03729e-05
4.71902e-05
3.30712e-05
1.47168e-05
5.33922e-06
6.38349e-07
9.04544e-08
1.67353e-06
4.60458e-06
1.0828e-05
1.6742e-05
2.02711e-05
2.32662e-05
2.62564e-05
2.82754e-05
2.73786e-05
2.41085e-05
1.71028e-05
1.19404e-05
1.04643e-05
1.25939e-05
1.56812e-05
1.7317e-05
1.94783e-05
1.93032e-05
1.72955e-05
1.54122e-05
1.45898e-05
1.55225e-05
1.81526e-05
2.22031e-05
2.7405e-05
3.33485e-05
3.93449e-05
4.4419e-05
4.85236e-05
4.88152e-05
3.88805e-05
1.74318e-05
5.756e-06
7.99444e-07
6.91761e-08
1.53419e-06
4.26679e-06
1.02925e-05
1.65034e-05
2.04709e-05
2.34808e-05
2.58064e-05
2.70528e-05
2.53888e-05
1.93773e-05
1.36563e-05
1.08905e-05
1.08963e-05
1.32708e-05
1.7505e-05
2.16799e-05
2.33588e-05
2.12461e-05
1.73558e-05
1.44221e-05
1.31585e-05
1.34416e-05
1.54447e-05
1.9181e-05
2.44049e-05
3.03719e-05
3.60474e-05
4.12698e-05
4.53561e-05
4.61044e-05
3.8278e-05
1.82554e-05
6.04998e-06
8.61811e-07
4.5964e-08
1.37387e-06
3.44888e-06
7.93278e-06
1.43601e-05
1.9451e-05
2.30033e-05
2.57514e-05
2.65684e-05
2.34794e-05
1.79066e-05
1.35363e-05
1.14507e-05
1.19181e-05
1.49772e-05
2.05656e-05
2.55645e-05
2.51609e-05
2.09688e-05
1.67181e-05
1.42371e-05
1.30475e-05
1.28185e-05
1.35406e-05
1.65375e-05
2.12326e-05
2.68246e-05
3.295e-05
3.91905e-05
4.41172e-05
4.60386e-05
3.93112e-05
1.87135e-05
6.19847e-06
8.92622e-07
2.506e-08
1.14335e-06
2.61372e-06
5.6117e-06
1.08761e-05
1.66858e-05
2.14296e-05
2.51155e-05
2.66527e-05
2.41505e-05
1.83178e-05
1.39099e-05
1.21388e-05
1.31074e-05
1.61433e-05
2.09179e-05
2.8584e-05
3.1849e-05
2.76349e-05
2.28731e-05
1.78115e-05
1.40727e-05
1.1708e-05
1.04874e-05
1.17495e-05
1.58498e-05
2.26569e-05
2.97897e-05
3.67469e-05
4.28919e-05
4.55737e-05
4.06438e-05
1.99348e-05
6.43209e-06
1.0186e-06
8.24119e-09
8.93913e-07
1.74483e-06
3.32117e-06
6.50805e-06
1.19609e-05
1.79449e-05
2.25953e-05
2.51171e-05
2.51388e-05
2.10272e-05
1.61887e-05
1.33641e-05
1.24974e-05
1.32474e-05
1.48407e-05
2.20814e-05
3.20793e-05
2.99659e-05
2.97634e-05
2.72056e-05
1.98721e-05
1.36659e-05
9.15224e-06
7.83222e-06
9.56385e-06
1.4107e-05
2.14631e-05
3.0661e-05
3.96747e-05
4.45281e-05
4.16287e-05
2.16372e-05
6.61704e-06
1.18961e-06
3.58391e-09
9.026e-07
1.22351e-06
1.78578e-06
2.89827e-06
5.05375e-06
9.31209e-06
1.58443e-05
2.13985e-05
2.23331e-05
1.96507e-05
1.66124e-05
1.45335e-05
1.37245e-05
1.34468e-05
1.08474e-05
1.28628e-05
1.835e-05
1.79706e-05
1.98211e-05
1.96286e-05
1.57774e-05
1.21497e-05
1.04973e-05
1.05145e-05
1.1472e-05
1.29569e-05
1.5588e-05
2.01292e-05
2.8616e-05
4.00278e-05
4.30463e-05
2.29832e-05
6.73616e-06
1.22283e-06
4.7212e-09
1.8969e-06
1.35853e-06
1.39457e-06
1.66337e-06
2.33055e-06
3.71705e-06
6.8063e-06
1.2623e-05
1.77549e-05
1.77735e-05
1.49601e-05
1.33738e-05
1.25271e-05
1.23993e-05
1.19404e-05
9.2414e-06
1.05105e-05
1.3499e-05
1.10484e-05
1.04031e-05
1.09366e-05
1.17346e-05
1.26651e-05
1.4314e-05
1.66956e-05
1.96951e-05
2.25905e-05
2.44198e-05
2.62041e-05
3.22619e-05
4.11615e-05
2.57992e-05
6.87206e-06
1.19265e-06
9.00947e-09
1.8749e-06
4.9097e-06
2.41023e-06
2.20383e-06
2.58456e-06
2.97802e-06
4.21118e-06
7.00463e-06
1.24341e-05
1.65807e-05
1.5051e-05
1.19836e-05
1.00526e-05
9.54412e-06
9.37824e-06
7.55679e-06
8.17827e-06
1.02373e-05
1.03166e-05
1.21096e-05
1.39318e-05
1.58602e-05
1.81754e-05
2.05514e-05
2.22826e-05
2.31397e-05
2.41829e-05
2.72468e-05
3.25173e-05
3.78103e-05
4.11757e-05
2.53263e-05
6.76203e-06
1.03729e-06
1.83715e-08
3.12533e-06
6.57822e-06
4.31526e-06
3.00901e-06
2.94031e-06
4.45876e-06
7.51552e-06
1.18111e-05
1.38798e-05
1.42021e-05
1.24596e-05
9.79039e-06
8.29906e-06
8.49782e-06
9.92083e-06
1.23195e-05
1.58055e-05
1.79221e-05
1.92806e-05
2.07647e-05
2.21361e-05
2.34974e-05
2.47863e-05
2.55947e-05
2.59543e-05
2.64441e-05
2.75791e-05
2.97655e-05
3.45323e-05
4.09352e-05
4.14137e-05
2.2312e-05
6.32815e-06
8.9046e-07
2.13875e-08
3.50031e-06
3.82597e-06
4.54941e-06
6.44185e-06
9.50553e-06
1.39133e-05
1.89366e-05
2.09268e-05
1.69328e-05
1.37123e-05
1.37987e-05
1.50539e-05
1.81777e-05
2.01561e-05
2.19802e-05
2.49708e-05
2.41381e-05
2.38037e-05
2.42922e-05
2.51385e-05
2.5905e-05
2.63732e-05
2.68157e-05
2.77024e-05
2.93069e-05
3.14895e-05
3.39135e-05
3.64131e-05
3.94886e-05
4.29686e-05
4.0561e-05
2.01965e-05
6.02624e-06
7.8782e-07
4.97821e-08
4.11229e-06
8.66598e-06
1.29561e-05
1.8318e-05
2.30395e-05
2.63964e-05
2.69801e-05
2.03991e-05
1.62597e-05
1.73038e-05
2.31141e-05
2.63059e-05
2.80935e-05
3.39587e-05
3.79222e-05
3.41861e-05
2.68938e-05
2.36278e-05
2.2749e-05
2.29991e-05
2.40881e-05
2.58072e-05
2.80264e-05
3.05697e-05
3.31798e-05
3.57393e-05
3.83655e-05
4.11481e-05
4.35705e-05
4.43051e-05
3.8445e-05
1.78656e-05
5.68464e-06
7.00768e-07
7.50872e-08
4.38678e-06
1.44754e-05
1.8968e-05
2.02635e-05
1.9804e-05
1.74127e-05
1.62266e-05
1.76142e-05
2.37496e-05
3.09218e-05
3.50051e-05
4.13331e-05
4.24849e-05
3.82185e-05
3.1641e-05
2.34806e-05
1.96168e-05
1.98477e-05
2.18402e-05
2.41556e-05
2.6241e-05
2.82996e-05
3.04592e-05
3.26966e-05
3.53256e-05
3.83864e-05
4.13261e-05
4.37423e-05
4.49523e-05
4.35567e-05
3.49426e-05
1.66166e-05
5.59656e-06
6.96029e-07
6.9731e-08
4.73585e-06
2.07826e-05
1.51236e-05
1.13257e-05
1.14399e-05
1.42993e-05
1.93521e-05
2.2736e-05
2.48989e-05
3.12324e-05
3.75289e-05
3.79958e-05
3.20812e-05
2.52277e-05
2.15452e-05
1.92925e-05
1.87998e-05
2.05665e-05
2.32873e-05
2.57849e-05
2.75902e-05
2.89514e-05
3.05263e-05
3.29939e-05
3.61938e-05
3.96708e-05
4.29064e-05
4.55481e-05
4.66865e-05
4.47165e-05
3.44048e-05
1.56208e-05
5.39786e-06
7.22047e-07
4.16351e-08
5.26131e-06
2.31178e-05
1.25742e-05
1.01044e-05
1.06251e-05
1.12227e-05
1.16743e-05
1.55919e-05
2.43959e-05
3.18337e-05
3.27154e-05
2.86353e-05
2.40818e-05
2.16953e-05
1.91264e-05
1.8088e-05
2.0443e-05
2.42599e-05
2.65886e-05
2.73537e-05
2.80822e-05
2.91108e-05
3.06056e-05
3.26384e-05
3.51895e-05
3.84309e-05
4.24969e-05
4.65054e-05
4.84249e-05
4.63582e-05
3.53962e-05
1.58919e-05
5.46414e-06
7.86198e-07
2.10274e-08
4.37998e-06
1.57947e-05
1.07428e-05
8.38117e-06
7.17975e-06
6.63251e-06
8.46735e-06
1.4137e-05
2.17321e-05
2.64451e-05
2.70781e-05
2.53821e-05
2.43613e-05
2.2952e-05
2.12492e-05
2.14415e-05
2.33882e-05
2.58431e-05
2.75229e-05
2.84225e-05
2.90686e-05
2.96867e-05
3.04451e-05
3.16917e-05
3.3839e-05
3.70263e-05
4.08447e-05
4.45594e-05
4.73094e-05
4.6108e-05
3.56704e-05
1.6198e-05
5.56819e-06
8.44922e-07
8.25062e-09
2.79073e-06
8.28008e-06
6.35046e-06
4.57668e-06
4.25733e-06
5.17642e-06
7.9355e-06
1.39277e-05
2.07463e-05
2.54757e-05
2.75941e-05
2.83731e-05
2.86704e-05
2.57559e-05
2.33072e-05
2.3981e-05
2.61036e-05
2.83069e-05
3.00675e-05
3.1138e-05
3.14502e-05
3.13059e-05
3.09877e-05
3.09746e-05
3.18497e-05
3.41532e-05
3.7993e-05
4.24203e-05
4.55068e-05
4.50405e-05
3.63075e-05
1.69552e-05
5.63848e-06
9.03152e-07
2.44203e-09
2.66748e-06
3.74934e-06
3.73643e-06
3.74807e-06
4.73673e-06
7.70901e-06
1.287e-05
1.95943e-05
2.58281e-05
3.01652e-05
3.29377e-05
3.45129e-05
3.11401e-05
2.7311e-05
2.68449e-05
2.8107e-05
2.99757e-05
3.187e-05
3.33377e-05
3.42207e-05
3.4276e-05
3.35336e-05
3.26182e-05
3.20828e-05
3.22468e-05
3.30492e-05
3.53051e-05
3.93514e-05
4.3321e-05
4.42419e-05
3.62846e-05
1.69827e-05
5.661e-06
9.10587e-07
3.33034e-09
3.6068e-06
4.96986e-06
6.46456e-06
8.84668e-06
1.27808e-05
1.81679e-05
2.41298e-05
2.95998e-05
3.39639e-05
3.72634e-05
3.91523e-05
3.51718e-05
3.034e-05
2.90907e-05
2.98478e-05
3.15447e-05
3.35429e-05
3.51993e-05
3.60613e-05
3.58531e-05
3.49273e-05
3.3777e-05
3.29617e-05
3.29028e-05
3.3815e-05
3.5822e-05
3.74284e-05
3.90402e-05
4.19547e-05
4.34815e-05
3.6827e-05
1.74405e-05
5.67578e-06
9.05642e-07
7.17938e-09
3.76816e-06
7.09626e-06
1.10408e-05
1.61299e-05
2.21251e-05
2.81515e-05
3.34955e-05
3.80266e-05
4.17135e-05
4.34987e-05
3.85922e-05
3.29604e-05
3.1353e-05
3.19627e-05
3.33474e-05
3.53462e-05
3.73226e-05
3.81736e-05
3.7874e-05
3.67677e-05
3.52534e-05
3.39131e-05
3.31063e-05
3.30714e-05
3.393e-05
3.58635e-05
3.89919e-05
4.17567e-05
4.34074e-05
4.35778e-05
3.6725e-05
1.7591e-05
5.6985e-06
8.74982e-07
1.01729e-08
3.61937e-06
7.78502e-06
1.37621e-05
2.18414e-05
3.06288e-05
3.72689e-05
4.10336e-05
4.47358e-05
4.83426e-05
4.31215e-05
3.63107e-05
3.40238e-05
3.42143e-05
3.56272e-05
3.82346e-05
4.02007e-05
4.01953e-05
3.94774e-05
3.83155e-05
3.6735e-05
3.51203e-05
3.39106e-05
3.3402e-05
3.36793e-05
3.47258e-05
3.64275e-05
3.90694e-05
4.21351e-05
4.41715e-05
4.37673e-05
3.60475e-05
1.72778e-05
5.69032e-06
8.41662e-07
1.17919e-08
3.46166e-06
7.8489e-06
1.49931e-05
2.56185e-05
3.4336e-05
3.8239e-05
4.20604e-05
4.57698e-05
4.81913e-05
4.09798e-05
3.77326e-05
3.75012e-05
3.88842e-05
4.11618e-05
4.21337e-05
4.16086e-05
4.12704e-05
4.04761e-05
3.87275e-05
3.66237e-05
3.49713e-05
3.4013e-05
3.37723e-05
3.41379e-05
3.50563e-05
3.68013e-05
3.91263e-05
4.16204e-05
4.36265e-05
4.34172e-05
3.57597e-05
1.70396e-05
5.64886e-06
8.26977e-07
1.24155e-08
3.30611e-06
7.67672e-06
1.51295e-05
2.67222e-05
3.45724e-05
3.85017e-05
4.23317e-05
4.6043e-05
4.50626e-05
4.27926e-05
4.23166e-05
4.29679e-05
4.42108e-05
4.44458e-05
4.41467e-05
4.42528e-05
4.34507e-05
4.14453e-05
3.8904e-05
3.66397e-05
3.51701e-05
3.44937e-05
3.42857e-05
3.44735e-05
3.51196e-05
3.62704e-05
3.80575e-05
4.04783e-05
4.30213e-05
4.30359e-05
3.55256e-05
1.69687e-05
5.6468e-06
8.26928e-07
1.29056e-08
3.22632e-06
7.52455e-06
1.47402e-05
2.59622e-05
3.4971e-05
3.89551e-05
4.28709e-05
4.67011e-05
5.03735e-05
4.96779e-05
4.89707e-05
4.86165e-05
4.79861e-05
4.77893e-05
4.81556e-05
4.76814e-05
4.59645e-05
4.33803e-05
4.06273e-05
3.81622e-05
3.64121e-05
3.54204e-05
3.47529e-05
3.41121e-05
3.36237e-05
3.40186e-05
3.5896e-05
3.92329e-05
4.2648e-05
4.31557e-05
3.58701e-05
1.71393e-05
5.7262e-06
8.37273e-07
1.41892e-08
3.24052e-06
7.81847e-06
1.51584e-05
2.5761e-05
3.58017e-05
3.97923e-05
4.37415e-05
4.76446e-05
5.14833e-05
5.52274e-05
5.59493e-05
5.46281e-05
5.39467e-05
5.37824e-05
5.33685e-05
5.22774e-05
5.03096e-05
4.74457e-05
4.40493e-05
4.08752e-05
3.86904e-05
3.70948e-05
3.51801e-05
3.29268e-05
3.10369e-05
3.06623e-05
3.27575e-05
3.71645e-05
4.20632e-05
4.35811e-05
3.69178e-05
1.76247e-05
5.81594e-06
8.60172e-07
1.58493e-08
3.24903e-06
7.89995e-06
1.54885e-05
2.6971e-05
3.74817e-05
4.14585e-05
4.53881e-05
4.92847e-05
5.31485e-05
5.69689e-05
6.07235e-05
6.36822e-05
6.27966e-05
6.18194e-05
6.08258e-05
5.93452e-05
5.66913e-05
5.29423e-05
4.86447e-05
4.47543e-05
4.20374e-05
3.95822e-05
3.62628e-05
3.23013e-05
2.8786e-05
2.70853e-05
2.84105e-05
3.30764e-05
3.93072e-05
4.28541e-05
3.78843e-05
1.80822e-05
5.85559e-06
8.95556e-07
1.76834e-08
3.35774e-06
8.23754e-06
1.58442e-05
2.71901e-05
3.96917e-05
4.37032e-05
4.76376e-05
5.15214e-05
5.53681e-05
5.91834e-05
6.29665e-05
6.67095e-05
7.03983e-05
7.21511e-05
7.02898e-05
6.74193e-05
6.36162e-05
5.8922e-05
5.37328e-05
4.91957e-05
4.59039e-05
4.25691e-05
3.80416e-05
3.25025e-05
2.72601e-05
2.41514e-05
2.43443e-05
2.84119e-05
3.55443e-05
4.10173e-05
3.79567e-05
1.83923e-05
5.89565e-06
9.37035e-07
1.97948e-08
3.52564e-06
8.74067e-06
1.65675e-05
2.78469e-05
4.15058e-05
4.62217e-05
5.01741e-05
5.40641e-05
5.7901e-05
6.16916e-05
6.54437e-05
6.91657e-05
7.28577e-05
7.64683e-05
7.92503e-05
7.52303e-05
6.97249e-05
6.35774e-05
5.72086e-05
5.21987e-05
4.84809e-05
4.4266e-05
3.85072e-05
3.18509e-05
2.57932e-05
2.24559e-05
2.24267e-05
2.55988e-05
3.20679e-05
3.94924e-05
3.84106e-05
1.86817e-05
5.91874e-06
9.47877e-07
2.15138e-08
3.72704e-06
9.33427e-06
1.78264e-05
2.96429e-05
4.31644e-05
4.846e-05
5.25514e-05
5.65237e-05
6.04006e-05
6.42e-05
6.79294e-05
7.15811e-05
7.51346e-05
7.85603e-05
8.18197e-05
8.20575e-05
7.5364e-05
6.76023e-05
5.99976e-05
5.42982e-05
4.95708e-05
4.34632e-05
3.56533e-05
2.74173e-05
2.24646e-05
2.11036e-05
2.22383e-05
2.58368e-05
3.20085e-05
3.88287e-05
3.86025e-05
1.90676e-05
5.91662e-06
9.4011e-07
2.25538e-08
3.86103e-06
9.9054e-06
1.91708e-05
3.17097e-05
4.52056e-05
4.9652e-05
5.3905e-05
5.80091e-05
6.19702e-05
6.57988e-05
6.95043e-05
7.30552e-05
7.64122e-05
7.9555e-05
8.244e-05
8.51257e-05
8.08562e-05
7.21577e-05
6.31512e-05
5.58305e-05
4.8718e-05
3.9693e-05
3.00989e-05
2.38757e-05
2.1118e-05
2.05742e-05
2.20673e-05
2.57922e-05
3.1949e-05
3.85641e-05
3.80533e-05
1.8782e-05
5.85219e-06
9.27659e-07
2.30097e-08
3.9033e-06
1.03131e-05
2.08745e-05
3.50762e-05
4.53505e-05
4.99943e-05
5.44573e-05
5.86827e-05
6.26826e-05
6.64663e-05
7.00353e-05
7.34251e-05
7.66484e-05
7.9659e-05
8.23975e-05
8.47878e-05
8.48219e-05
7.56033e-05
6.52431e-05
5.54952e-05
4.49791e-05
3.35025e-05
2.55775e-05
2.1381e-05
1.96854e-05
2.01353e-05
2.23554e-05
2.6428e-05
3.24563e-05
3.87178e-05
3.80101e-05
1.86742e-05
5.83247e-06
9.30783e-07
2.38018e-08
3.97815e-06
1.08813e-05
2.30479e-05
4.0141e-05
4.51864e-05
4.99807e-05
5.44964e-05
5.87472e-05
6.27487e-05
6.65115e-05
7.00363e-05
7.3311e-05
7.63054e-05
7.89947e-05
8.13451e-05
8.33118e-05
8.48498e-05
7.5444e-05
6.39055e-05
5.10273e-05
3.74303e-05
2.79022e-05
2.23377e-05
1.95219e-05
1.90738e-05
2.01698e-05
2.26318e-05
2.65281e-05
3.19604e-05
3.76308e-05
3.69408e-05
1.83402e-05
5.75089e-06
9.44339e-07
2.40396e-08
4.02398e-06
1.13597e-05
2.50898e-05
3.95415e-05
4.46496e-05
4.94883e-05
5.4025e-05
5.82547e-05
6.21823e-05
6.58129e-05
6.91471e-05
7.21782e-05
7.489e-05
7.72555e-05
7.92376e-05
8.07903e-05
8.13231e-05
6.96229e-05
5.50028e-05
4.05513e-05
3.0049e-05
2.36389e-05
2.0328e-05
1.94255e-05
1.97434e-05
2.08584e-05
2.29773e-05
2.63021e-05
3.11973e-05
3.65806e-05
3.58827e-05
1.79319e-05
5.66185e-06
9.45875e-07
2.37906e-08
4.15538e-06
1.19805e-05
2.69539e-05
3.87848e-05
4.38725e-05
4.86818e-05
5.31644e-05
5.73097e-05
6.11193e-05
6.4594e-05
6.77279e-05
7.05058e-05
7.29025e-05
7.48834e-05
7.64076e-05
7.74306e-05
7.21949e-05
5.64129e-05
4.04759e-05
2.94773e-05
2.30535e-05
2.01302e-05
1.96559e-05
2.02633e-05
2.12537e-05
2.23771e-05
2.39109e-05
2.69306e-05
3.1467e-05
3.61189e-05
3.53541e-05
1.77349e-05
5.58799e-06
9.36805e-07
2.27534e-08
4.36886e-06
1.25614e-05
2.83045e-05
3.80777e-05
4.31529e-05
4.79971e-05
5.2426e-05
5.64501e-05
6.00797e-05
6.33179e-05
6.61572e-05
6.8579e-05
7.05543e-05
7.2047e-05
7.30192e-05
7.34039e-05
5.87973e-05
4.0063e-05
2.70533e-05
2.05349e-05
1.8195e-05
1.83708e-05
1.95462e-05
2.10334e-05
2.2592e-05
2.42635e-05
2.6118e-05
2.85781e-05
3.27254e-05
3.69902e-05
3.50744e-05
1.73968e-05
5.49849e-06
8.94823e-07
2.02972e-08
4.48017e-06
1.27264e-05
2.86045e-05
3.67886e-05
4.19251e-05
4.6738e-05
5.10835e-05
5.49763e-05
5.84275e-05
6.14379e-05
6.39963e-05
6.60801e-05
6.76572e-05
6.86895e-05
6.91989e-05
6.5477e-05
4.27165e-05
2.58783e-05
1.83282e-05
1.62472e-05
1.66515e-05
1.7841e-05
1.92407e-05
2.08374e-05
2.27863e-05
2.51027e-05
2.7886e-05
3.1044e-05
3.43731e-05
3.73894e-05
3.35489e-05
1.61093e-05
5.37119e-06
8.30538e-07
1.67343e-08
4.33842e-06
1.24485e-05
2.82201e-05
3.39475e-05
3.92338e-05
4.40647e-05
4.84212e-05
5.23012e-05
5.57054e-05
5.86288e-05
6.10575e-05
6.29653e-05
6.43176e-05
6.51645e-05
6.5538e-05
5.24705e-05
3.00919e-05
1.92516e-05
1.5908e-05
1.55867e-05
1.62315e-05
1.72294e-05
1.84163e-05
1.98207e-05
2.16695e-05
2.44754e-05
2.83234e-05
3.25559e-05
3.60763e-05
3.74997e-05
3.2568e-05
1.57189e-05
5.3381e-06
8.22947e-07
1.37261e-08
3.76967e-06
1.20992e-05