/*--------------------------------*- C++ -*----------------------------------*\
| =========                 |                                                 |
| \\      /  F ield         | OpenFOAM: The Open Source CFD Toolbox           |
|  \\    /   O peration     | Version:  v1906                                 |
|   \\  /    A nd           | Web:      www.OpenFOAM.com                      |
|    \\/     M anipulation  |                                                 |
\*---------------------------------------------------------------------------*/
FoamFile
{
    version     2.0;
    format      ascii;
    class       volScalarField;
    location    "1000";
    object      omega;
}
// * * * * * * * * * * * * * * * * * * * * * * * * * * * * * * * * * * * * * //

dimensions      [0 0 -1 0 0 0 0];


internalField   nonuniform List<scalar> 
78750
(
358.323
13.6375
13.5809
13.5693
13.5791
13.5949
13.6117
13.6281
13.6445
13.6613
13.6785
13.6965
13.7152
13.7347
13.7552
13.7767
13.7992
13.8225
13.8466
13.8714
13.8967
13.9222
13.9478
13.9729
13.9974
14.0208
14.0406
14.0521
14.0473
14.0083
13.9381
13.8218
13.6536
13.4091
337.794
526.09
4.28698
4.24268
4.23081
4.22915
4.2304
4.23335
4.23761
4.24293
4.2492
4.25633
4.2644
4.27378
4.2853
4.30047
4.32156
4.3511
4.39211
4.4474
4.52029
4.61299
4.72203
4.8446
4.96892
5.08882
5.20787
5.32959
5.43322
5.48356
5.48379
5.43178
5.3212
5.14177
4.82784
501.492
526.179
4.36198
4.26938
4.21401
4.17869
4.16034
4.15244
4.15229
4.15811
4.16921
4.18567
4.20792
4.23652
4.27199
4.31455
4.36403
4.42964
4.51023
4.60351
4.70696
4.81796
4.93402
5.04862
5.16171
5.28259
5.40913
5.51394
5.57868
5.59859
5.58042
5.51518
5.404
5.23947
4.95489
502.065
526.224
4.42026
4.31391
4.23523
4.18751
4.16165
4.1548
4.15838
4.16963
4.18838
4.21699
4.25994
4.31745
4.39022
4.47948
4.58567
4.70091
4.82377
4.95159
5.08098
5.20877
5.33349
5.4634
5.60544
5.73886
5.83521
5.89221
5.90982
5.89786
5.84458
5.74974
5.61078
5.4069
5.05784
503.274
526.245
4.44547
4.33242
4.24596
4.1987
4.18909
4.21563
4.26217
4.32
4.38813
4.46403
4.54603
4.63667
4.73716
4.84633
4.96151
5.07984
5.19881
5.31628
5.4313
5.55453
5.68632
5.80782
5.91616
5.99594
6.04919
6.07803
6.08007
6.05181
5.98656
5.88051
5.72804
5.50986
5.14187
504.263
526.275
4.47954
4.36845
4.29797
4.28519
4.33432
4.41521
4.50209
4.59097
4.68688
4.78826
4.89815
5.01524
5.12951
5.23648
5.33938
5.44096
5.5433
5.65459
5.7694
5.87862
5.98668
6.08053
6.15825
6.2214
6.26877
6.29323
6.29353
6.26417
6.19362
6.07849
5.91627
5.6776
5.26126
505.107
526.281
4.50879
4.41694
4.37235
4.3929
4.47235
4.57652
4.67575
4.773
4.87482
4.98116
5.08819
5.18581
5.2755
5.3611
5.44354
5.52387
5.61334
5.71661
5.81883
5.92365
6.0358
6.14632
6.24586
6.33407
6.40351
6.44728
6.4569
6.43228
6.36314
6.24873
6.08532
5.83697
5.39575
505.996
526.281
4.53931
4.47255
4.45016
4.4897
4.57824
4.68119
4.77314
4.86034
4.94968
5.03807
5.12371
5.20554
5.28401
5.36066
5.43303
5.50565
5.58633
5.67276
5.77
5.88669
6.02023
6.16039
6.29861
6.4226
6.52329
6.59022
6.61115
6.59383
6.52749
6.41305
6.24767
5.9937
5.53217
506.609
526.274
4.56624
4.52408
4.51694
4.55996
4.63912
4.72693
4.80265
4.87477
4.95204
5.03185
5.1073
5.1766
5.23826
5.29116
5.33893
5.39184
5.45879
5.54314
5.65254
5.79676
5.96992
6.15156
6.32832
6.48753
6.61766
6.70768
6.74197
6.73024
6.66547
6.55269
6.3924
6.14511
5.67857
507.411
526.255
4.58486
4.56696
4.56984
4.60717
4.66857
4.73669
4.80202
4.86044
4.91791
4.97447
5.03089
5.08475
5.1352
5.1834
5.23287
5.29327
5.37751
5.48984
5.63126
5.80583
6.01393
6.22982
6.4279
6.59567
6.72578
6.81214
6.8454
6.83418
6.77412
6.6703
6.52102
6.28223
5.8054
507.866
526.232
4.59428
4.59639
4.60592
4.63433
4.67646
4.72485
4.76947
4.81175
4.85567
4.90481
4.95765
5.01336
5.07256
5.13772
5.21149
5.30033
5.41487
5.56786
5.74985
5.95279
6.17119
6.38425
6.57207
6.72809
6.84861
6.92911
6.96116
6.9542
6.90164
6.80509
6.65799
6.41083
5.90238
507.985
526.213
4.59804
4.61584
4.63061
4.65147
4.67658
4.70335
4.73485
4.76994
4.811
4.86231
4.92257
4.99102
5.06754
5.1521
5.24984
5.36624
5.51181
5.68455
5.87204
6.0704
6.2832
6.49123
6.67573
6.83007
6.95481
7.04295
7.08784
7.08945
7.04702
6.95705
6.81224
6.55862
6.02419
508.252
526.197
4.59981
4.62896
4.64638
4.66026
4.67222
4.68721
4.71186
4.74596
4.78986
4.84736
4.91734
4.99778
5.08911
5.19253
5.30594
5.42906
5.56951
5.73478
5.91523
6.10843
6.31646
6.52326
6.7132
6.88239
7.01952
7.12333
7.19081
7.21074
7.18616
7.10964
6.97325
6.7232
6.17839
508.589
526.178
4.59955
4.63796
4.65722
4.66667
4.67182
4.68063
4.70329
4.73949
4.78745
4.84984
4.92587
5.01475
5.11412
5.22261
5.33897
5.46202
5.59586
5.7492
5.92577
6.11662
6.31466
6.51802
6.71301
6.88957
7.04416
7.17598
7.27853
7.33911
7.33998
7.27423
7.13981
6.88881
6.33863
508.825
526.154
4.59368
4.64186
4.66425
4.67281
4.67494
4.68266
4.70524
4.74339
4.79413
4.85941
4.93961
5.03148
5.13273
5.24149
5.35637
5.47631
5.60343
5.74841
5.91939
6.10331
6.29442
6.49659
6.7016
6.89897
7.08344
7.25108
7.3954
7.48581
7.49649
7.43079
7.29315
7.04084
6.4954
509.099
526.127
4.58252
4.64175
4.66876
4.67794
4.67954
4.68626
4.70908
4.74942
4.80262
4.86893
4.95005
5.04298
5.14493
5.25358
5.36724
5.48484
5.61192
5.76108
5.93654
6.13065
6.34249
6.57315
6.81037
7.03675
7.24109
7.42169
7.55637
7.6312
7.63211
7.55704
7.4082
7.1471
6.6061
509.257
526.104
4.56887
4.63754
4.67037
4.68383
4.68807
4.69709
4.72395
4.77156
4.83135
4.90254
4.98763
5.08242
5.18394
5.29107
5.40467
5.53147
5.68633
5.88357
6.12367
6.38869
6.67008
6.95243
7.2152
7.43981
7.617
7.74043
7.80881
7.82418
7.78465
7.67766
7.50386
7.21357
6.62444
509.207
526.098
4.56007
4.63543
4.67308
4.68929
4.6979
4.71276
4.74609
4.79977
4.86732
4.94744
5.04534
5.16465
5.30602
5.47269
5.67184
5.91075
6.19284
6.50836
6.82525
7.13368
7.42148
7.6467
7.80946
7.92059
7.98663
8.01435
8.00912
7.97342
7.89466
7.7676
7.57628
7.2566
6.60868
508.559
526.11
4.56354
4.63758
4.67631
4.69744
4.711
4.73324
4.78197
4.86355
4.97613
5.12397
5.31012
5.52693
5.76661
6.02631
6.30466
6.60675
6.92872
7.23254
7.503
7.74929
7.92784
8.04778
8.12894
8.1763
8.19358
8.18871
8.15667
8.09677
8.00423
7.86664
7.65931
7.30251
6.58164
508.169
526.137
4.56983
4.64153
4.68439
4.71202
4.74121
4.79609
4.89773
5.04607
5.23633
5.46761
5.72622
5.99455
6.26371
6.53332
6.81301
7.11132
7.40967
7.66841
7.89497
8.1009
8.23926
8.33696
8.4072
8.43048
8.4268
8.38331
8.31942
8.24396
8.14749
8.00912
7.79739
7.42231
6.64973
508.34
526.143
4.57878
4.64892
4.69373
4.73029
4.78232
4.8786
5.03136
5.23154
5.47204
5.73903
6.01057
6.27253
6.51948
6.75968
7.0143
7.2964
7.57622
7.8274
8.06687
8.29384
8.47408
8.59699
8.6606
8.6691
8.63551
8.55544
8.45935
8.35192
8.25941
8.15987
7.99236
7.66926
6.90154
509.491
526.117
4.5761
4.6546
4.71164
4.7653
4.84515
4.97111
5.13913
5.33835
5.56642
5.81047
6.05218
6.28379
6.50939
6.73384
6.96985
7.24557
7.53572
7.80212
8.05158
8.28896
8.48492
8.6277
8.71605
8.7413
8.71656
8.63481
8.50186
8.36653
8.27517
8.22988
8.1589
7.94192
7.29573
511.553
526.03
4.53723
4.64467
4.71018
4.77063
4.85227
4.96934
5.1263
5.31512
5.53183
5.76444
5.99513
6.21369
6.41908
6.60578
6.79206
6.99548
7.22318
7.46864
7.70602
7.92665
8.1473
8.36228
8.54086
8.6566
8.68918
8.63719
8.49484
8.29408
8.20017
8.24042
8.25977
8.16376
7.79832
514.275
525.93
4.46664
4.60449
4.69563
4.76839
4.8494
4.95577
5.08728
5.24413
5.42383
5.6191
5.81876
6.01542
6.20505
6.38629
6.56396
6.7444
6.9271
7.10792
7.29308
7.48014
7.6477
7.79769
7.911
7.99138
8.03896
8.05216
8.04386
8.06535
8.09332
8.21565
8.26924
8.18717
7.85452
515.231
525.873
4.40154
4.54615
4.65111
4.73394
4.81491
4.90973
5.02326
5.15552
5.30535
5.46952
5.64307
5.82153
6.00204
6.18141
6.35784
6.53041
6.69879
6.86048
7.01693
7.16409
7.2893
7.3957
7.517
7.63742
7.74339
7.82912
7.9354
8.06795
8.22347
8.37612
8.37021
8.21381
7.7845
514.974
525.87
4.3972
4.54276
4.65343
4.7395
4.8214
4.91733
5.03271
5.16805
5.32168
5.48831
5.66192
5.83655
6.01173
6.17888
6.33655
6.48069
6.60763
6.71663
6.81882
6.94834
7.14099
7.37672
7.62261
7.86142
8.09043
8.30007
8.49236
8.63459
8.68869
8.62711
8.43751
8.12079
7.44411
512.318
525.903
4.40718
4.5534
4.67281
4.77545
4.87694
4.98784
5.11236
5.24871
5.39316
5.54452
5.70341
5.87296
6.04428
6.21812
6.40097
6.6183
6.86999
7.13261
7.37833
7.59807
7.77722
7.96049
8.16126
8.37076
8.56235
8.71546
8.80156
8.81004
8.75393
8.61969
8.40199
7.99673
7.13893
509.444
525.963
4.44789
4.58929
4.71129
4.82054
4.93285
5.05989
5.20662
5.37341
5.55793
5.75624
5.96362
6.17447
6.38933
6.60778
6.82351
7.02027
7.20144
7.35191
7.4732
7.57856
7.73376
7.93328
8.16012
8.38471
8.58247
8.7371
8.83391
8.85211
8.80752
8.67977
8.43798
7.9905
7.11296
509.307
526.008
4.49036
4.62877
4.7576
4.88371
5.01973
5.17333
5.34535
5.53156
5.72513
5.91866
6.10546
6.28057
6.44562
6.60507
6.76993
6.90867
6.96233
6.93622
6.89789
6.95097
7.18389
7.51437
7.88078
8.22595
8.51794
8.74039
8.88317
8.94233
8.92607
8.82123
8.61123
8.20493
7.36654
510.203
525.987
4.49816
4.65128
4.79272
4.93038
5.07428
5.22964
5.3958
5.56887
5.74398
5.91699
6.08565
6.24336
6.38514
6.50645
6.59402
6.64986
6.65049
6.62838
6.66243
6.83512
7.12448
7.48035
7.85454
8.20469
8.5023
8.73261
8.88718
8.96784
8.96649
8.88076
8.69055
8.30908
7.55466
511.433
525.961
4.50486
4.67756
4.82707
4.96654
5.10925
5.2616
5.42278
5.5882
5.75164
5.90654
6.04009
6.15658
6.25501
6.3344
6.39535
6.44799
6.53257
6.75642
7.02691
7.32057
7.62321
7.91725
8.20376
8.46855
8.69781
8.87987
9.00275
9.0541
9.03148
8.91707
8.70093
8.31779
7.55655
511.416
525.996
4.5293
4.71269
4.8753
5.02721
5.18029
5.33779
5.4958
5.64835
5.79142
5.92478
6.05338
6.174
6.29737
6.45812
6.65974
6.87981
7.10032
7.26942
7.44064
7.63356
7.86383
8.11555
8.37606
8.62968
8.85107
9.01259
9.10343
9.11136
9.05524
8.91536
8.67434
8.21257
7.31434
510.26
526.1
4.61461
4.80886
4.98725
5.15291
5.3164
5.48035
5.64352
5.80433
5.96213
6.11741
6.27377
6.43824
6.60705
6.75637
6.89081
7.01613
7.14007
7.26577
7.39295
7.55497
7.80256
8.06786
8.35475
8.62837
8.85904
9.02553
9.12105
9.14618
9.10829
8.96931
8.7022
8.2152
7.3163
510.039
526.156
4.67658
4.87108
5.05822
5.23616
5.41234
5.58873
5.76301
5.9315
6.08926
6.23471
6.36819
6.49312
6.60674
6.71073
6.81457
6.94543
7.09152
7.21449
7.30274
7.36081
7.39185
7.61634
7.94246
8.30378
8.64043
8.90955
9.08961
9.16361
9.16632
9.08887
8.88376
8.46135
7.59229
510.754
526.145
4.70506
4.92489
5.12168
5.3014
5.47441
5.64368
5.8052
5.95527
6.09503
6.22922
6.34932
6.44682
6.52274
6.61472
6.78592
7.02318
7.24128
7.39267
7.44374
7.41672
7.37806
7.46528
7.71388
8.06214
8.43158
8.75403
8.99217
9.13746
9.16652
9.10208
8.94005
8.61516
7.88398
511.886
526.063
4.68822
4.92309
5.12071
5.29944
5.47024
5.63603
5.79295
5.93633
6.06239
6.16568
6.2499
6.31798
6.40369
6.57518
6.82575
7.08042
7.28647
7.41983
7.45653
7.40811
7.34543
7.36417
7.57417
7.93182
8.34398
8.71205
8.97402
9.1193
9.15757
9.10764
8.95553
8.63765
7.95377
512.164
525.968
4.62285
4.89503
5.1112
5.29224
5.45644
5.61153
5.75485
5.8821
5.99224
6.08466
6.16094
6.23827
6.37054
6.589
6.84738
7.0792
7.26058
7.38067
7.43527
7.41125
7.3494
7.32532
7.38315
7.70248
8.14058
8.55482
8.8661
9.05616
9.12126
9.0963
8.97453
8.69857
8.05429
512.301
525.882
4.51435
4.80388
5.04495
5.23506
5.39559
5.54184
5.67573
5.7936
5.89488
5.98144
6.05578
6.13679
6.28939
6.51503
6.76115
6.98538
7.18243
7.35104
7.47656
7.5291
7.49089
7.34974
7.17788
7.32788
7.77071
8.29152
8.70073
8.96123
9.07382
9.07976
8.9881
8.75562
8.1984
512.821
525.811
4.36844
4.62326
4.87937
5.10912
5.29522
5.44406
5.56808
5.67511
5.76746
5.84714
5.91567
5.98316
6.09394
6.25563
6.46328
6.68032
6.87809
7.05068
7.19516
7.29524
7.29915
7.17164
6.80156
6.78736
7.23494
7.88605
8.46063
8.84366
9.03587
9.07581
8.99976
8.78163
8.29966
513.815
525.789
4.23886
4.38851
4.57554
4.78868
5.00611
5.20339
5.36651
5.49407
5.59461
5.67576
5.74123
5.79214
5.84709
5.92781
6.04357
6.18627
6.33445
6.4716
6.54579
6.54799
6.51076
6.42364
6.47242
6.73484
7.22739
7.84626
8.41439
8.81897
9.02656
9.06592
8.99094
8.77498
8.30266
514.203
525.795
4.19369
4.26045
4.34913
4.47499
4.63829
4.83017
5.02619
5.20046
5.34354
5.46228
5.56178
5.64303
5.70726
5.75946
5.80135
5.83166
5.8483
5.84689
5.86951
5.92733
6.06987
6.3263
6.74822
7.33734
7.9528
8.44621
8.77548
8.97465
9.07067
9.06057
8.95467
8.70777
8.20186
514.13
525.813
4.23933
4.30263
4.3432
4.38388
4.45735
4.5734
4.72118
4.87836
5.02264
5.14482
5.24781
5.33725
5.41188
5.47046
5.51309
5.54161
5.57821
5.69714
5.92378
6.2874
6.76695
7.31791
7.86032
8.31233
8.64124
8.86668
9.01581
9.09908
9.10709
9.05638
8.90123
8.6191
8.03485
513.337
525.853
4.37848
4.4908
4.54552
4.57606
4.62045
4.70739
4.82187
4.94337
5.06701
5.18137
5.28189
5.37506
5.47278
5.60807
5.84853
6.20177
6.6167
7.01612
7.39836
7.76692
8.0929
8.35715
8.55654
8.70817
8.83517
8.95177
9.05218
9.1144
9.11012
9.02521
8.84769
8.52837
7.86322
512.206
525.867
4.52458
4.71809
4.83808
4.93798
5.04312
5.1645
5.299
5.44317
5.60334
5.792
6.00536
6.23834
6.49925
6.76668
7.01607
7.23393
7.44708
7.66734
7.88552
8.08079
8.26863
8.45583
8.64958
8.83828
9.00662
9.13717
9.20578
9.20162
9.13891
9.01215
8.80908
8.45147
7.72656
511.404
525.982
4.84717
5.13184
5.29322
5.42201
5.54828
5.67959
5.81893
5.97223
6.13852
6.30471
6.46095
6.61251
6.76717
6.92915
7.09608
7.27601
7.47911
7.70017
7.92964
8.16215
8.39197
8.6165
8.82081
8.99449
9.12271
9.19658
9.22299
9.20603
9.13686
9.00168
8.77596
8.38281
7.60678
510.782
526.086
4.94817
5.24851
5.42678
5.56053
5.6768
5.78765
5.89846
6.01045
6.1224
6.24042
6.3697
6.51063
6.66267
6.82927
7.01344
7.22225
7.45231
7.68605
7.92058
8.15936
8.3961
8.62279
8.8298
9.00655
9.14412
9.23519
9.26532
9.24103
9.15408
9.00443
8.77327
8.36825
7.59369
510.672
526.066
4.92535
5.20041
5.36325
5.4751
5.54226
5.58935
5.6396
5.70944
5.80662
5.92229
6.04708
6.18143
6.33378
6.51638
6.7312
6.96984
7.22355
7.48628
7.75648
8.03059
8.30153
8.5602
8.79509
8.99328
9.1441
9.23874
9.26985
9.25135
9.17066
9.02419
8.78809
8.37185
7.59597
510.804
525.954
4.7195
4.93817
5.0662
5.14591
5.18355
5.21816
5.28152
5.38161
5.49722
5.61671
5.74801
5.90442
6.09373
6.31572
6.56705
6.84339
7.12814
7.40493
7.6745
7.94282
8.21172
8.47138
8.71439
8.92925
9.10284
9.22243
9.27143
9.26091
9.18789
9.05053
8.82493
8.42267
7.6865
511.343
525.872
4.49498
4.66398
4.76268
4.82112
4.85516
4.90401
5.00747
5.15468
5.31595
5.484
5.66063
5.8502
6.06163
6.29591
6.55343
6.83105
7.11335
7.38803
7.65721
7.92278
8.1814
8.43415
8.67379
8.89026
9.06992
9.19873
9.25966
9.25859
9.19036
9.05358
8.83247
8.4564
7.77008
511.851
525.819
4.30308
4.41201
4.48425
4.54245
4.61396
4.73793
4.91177
5.10481
5.29573
5.48467
5.68034
5.88784
6.10915
6.35084
6.61775
6.8944
7.16331
7.42136
7.67491
7.92749
8.17935
8.42665
8.66351
8.87994
9.06149
9.18969
9.25636
9.25369
9.17855
9.04019
8.82404
8.45975
7.80039
512.268
525.795
4.20347
4.2813
4.36625
4.47821
4.63631
4.83772
5.05849
5.27642
5.48566
5.6912
5.89846
6.11015
6.33499
6.58138
6.83761
7.08795
7.32854
7.56128
7.79269
8.02283
8.25105
8.4758
8.69222
8.8915
9.06323
9.18899
9.2487
9.23811
9.15769
9.01591
8.79836
8.43673
7.79963
512.396
525.799
4.27589
4.42967
4.60187
4.79477
5.00022
5.20398
5.39813
5.58354
5.76486
5.94634
6.13108
6.32803
6.54629
6.77758
7.00721
7.23083
7.45018
7.66874
7.89178
8.11868
8.34743
8.57194
8.78159
8.96406
9.10946
9.20489
9.24269
9.21902
9.12982
8.98358
8.76477
8.40345
7.7647
512.398
525.816
4.40328
4.63763
4.85533
5.05705
5.2429
5.41682
5.58442
5.74993
5.91549
6.08373
6.26432
6.4668
6.68367
6.90096
7.11361
7.32347
7.53337
7.74653
7.96686
8.19318
8.42089
8.64119
8.84251
9.01344
9.14426
9.22229
9.23868
9.19712
9.09667
8.94378
8.72033
8.35445
7.70932
512.303
525.83
4.4754
4.74672
4.97948
5.1793
5.35555
5.51951
5.68072
5.84234
6.0027
6.17096
6.35984
6.5638
6.77068
6.97552
7.1778
7.38047
7.58818
7.80492
8.03225
8.26572
8.49804
8.718
8.91244
9.07057
9.18212
9.23393
9.23099
9.1736
9.06631
8.91264
8.68913
8.31932
7.66434
512.133
525.838
4.50574
4.79188
5.03115
5.22806
5.39956
5.56434
5.72901
5.89193
6.05376
6.2254
6.4128
6.60601
6.7995
6.9927
7.18935
7.39306
7.60602
7.82804
8.06125
8.30242
8.54257
8.76652
8.95859
9.10787
9.19574
9.23294
9.21576
9.14837
9.03866
8.88941
8.67251
8.31127
7.65777
511.999
525.842
4.50907
4.79891
5.04141
5.23867
5.4108
5.57699
5.74221
5.90528
6.07106
6.24585
6.42792
6.61382
6.80201
6.99407
7.19287
7.39886
7.61309
7.83936
8.08152
8.33403
8.58603
8.81502
8.99647
9.12273
9.19562
9.2087
9.17493
9.10386
9.00275
8.86722
8.66506
8.31134
7.66126
512.037
525.844
4.50904
4.80032
5.04689
5.24999
5.42601
5.59486
5.76418
5.93291
6.10046
6.2704
6.44637
6.62801
6.81541
7.00903
7.20843
7.41514
7.63345
7.86712
8.11912
8.379
8.62271
8.83367
8.99982
9.1059
9.14487
9.13925
9.09829
9.03895
8.9606
8.84607
8.66361
8.3277
7.69773
512.246
525.85
4.52373
4.82225
5.07298
5.28043
5.45894
5.62893
5.80069
5.97376
6.14699
6.31869
6.49136
6.66966
6.85414
7.04418
7.24119
7.44837
7.66991
7.906
8.15178
8.3977
8.6252
8.81595
8.95057
9.02533
9.0452
9.02806
8.99869
8.96501
8.91567
8.8246
8.66486
8.36802
7.76564
512.48
525.858
4.54969
4.8661
5.13113
5.3459
5.52692
5.6977
5.86999
6.04417
6.22001
6.39673
6.57296
6.74876
6.92777
7.11324
7.30752
7.51344
7.72898
7.95203
8.17878
8.40049
8.60174
8.76119
8.86833
8.91933
8.92152
8.8962
8.88405
8.88469
8.86977
8.80545
8.67188
8.40633
7.82946
512.718
525.866
4.58025
4.91626
5.19958
5.4299
5.61896
5.79303
5.96732
6.1427
6.31954
6.49791
6.67752
6.85774
7.0376
7.21888
7.40566
7.59915
7.79877
8.00235
8.205
8.39541
8.56082
8.68583
8.76109
8.78438
8.76482
8.74364
8.76103
8.8084
8.82561
8.78454
8.67257
8.42749
7.88312
513.02
525.876
4.61939
4.97768
5.27906
5.5252
5.7243
5.90327
6.08036
6.25795
6.43611
6.61505
6.79494
6.97591
7.15814
7.33899
7.5156
7.69055
7.86775
8.04516
8.21326
8.36826
8.49419
8.57974
8.62052
8.61999
8.59417
8.59754
8.65586
8.73733
8.77992
8.7562
8.65557
8.42834
7.88859
513.117
525.884
4.65571
5.03341
5.34851
5.60655
5.81735
6.00665
6.19157
6.37451
6.55625
6.7374
6.91813
7.09792
7.27544
7.44882
7.61574
7.77249
7.92082
8.06383
8.20054
8.3151
8.39677
8.44083
8.44878
8.43247
8.43357
8.49194
8.59994
8.70262
8.75471
8.73731
8.64081
8.4106
7.87558
513.097
525.89
4.67698
5.06386
5.38541
5.64846
5.86587
6.06425
6.25836
6.44923
6.63669
6.82083
7.00174
7.17849
7.34791
7.50849
7.65771
7.79586
7.92427
8.0419
8.14237
8.21726
8.25982
8.27081
8.25942
8.2512
8.29412
8.4025
8.54843
8.67535
8.73913
8.72479
8.62499
8.39032
7.84907
513.007
525.893
4.68455
5.07544
5.3959
5.65405
5.87515
6.08363
6.2879
6.48527
6.67561
6.85878
7.03426
7.20206
7.36393
7.5173
7.65884
7.7842
7.89002
7.97721
8.0445
8.08589
8.09752
8.08477
8.06694
8.08967
8.18559
8.34925
8.52907
8.66456
8.73017
8.71367
8.61236
8.37803
7.84482
512.925
525.898
4.69121
5.08218
5.39892
5.6486
5.86943
6.08434
6.29134
6.49018
6.68085
6.86321
7.03679
7.20056
7.35251
7.49067
7.61281
7.71617
7.79799
7.85844
7.89668
7.90869
7.89587
7.87462
7.88652
7.96713
8.13493
8.34023
8.52503
8.66023
8.72123
8.70073
8.59457
8.35559
7.82791
512.977
525.9
4.6924
5.07828
5.38039
5.62551
5.84874
6.06564
6.27368
6.47165
6.65888
6.83486
6.99895
7.15021
7.28735
7.40854
7.51146
7.59334
7.65174
7.68648
7.69699
7.68328
7.66851
7.68429
7.76428
7.9353
8.13397
8.33994
8.52258
8.64741
8.70356
8.68049
8.57032
8.32595
7.79695
513.035
525.9
4.6941
5.06976
5.35691
5.59442
5.81588
6.03059
6.23535
6.42864
6.60961
6.77752
6.9314
7.06988
7.19117
7.29304
7.37292
7.42811
7.45732
7.45945
7.4433
7.43248
7.45782
7.55292
7.73015
7.9364
8.1498
8.35239
8.52337
8.64191
8.68745
8.65691
8.53923
8.28651
7.74928
513.014
525.897
4.69299
5.06305
5.33917
5.56837
5.78841
6.00378
6.20528
6.39217
6.5639
6.71974
6.85859
6.97888
7.07858
7.15535
7.20673
7.22972
7.22861
7.21031
7.19626
7.22337
7.33126
7.52716
7.74916
7.98027
8.20029
8.39325
8.54428
8.64003
8.66985
8.62848
8.50151
8.23663
7.67749
512.874
525.888
4.66371
5.0218
5.29248
5.52172
5.74285
5.95517
6.15122
6.33038
6.49202
6.63526
6.75878
6.86086
6.93933
6.99181
7.0179
7.02044
7.00439
6.98516
7.00371
7.11307
7.30102
7.52196
7.75384
7.98616
8.20676
8.39988
8.54822
8.63434
8.65166
8.59924
8.46267
8.18259
7.59788
512.528
525.874
4.58824
4.91682
5.17827
5.41132
5.63527
5.8454
6.0391
6.21485
6.37146
6.50775
6.62221
6.71293
6.77765
6.8171
6.8328
6.83156
6.82035
6.82221
6.88541
7.02334
7.20963
7.43099
7.67519
7.92594
8.1644
8.37067
8.52562
8.61501
8.63089
8.57538
8.43854
8.15789
7.58829
512.437
525.862
4.47987
4.75316
4.99553
5.22463
5.44856
5.66055
5.85687
6.03529
6.19422
6.33209
6.44703
6.53669
6.60098
6.64278
6.66565
6.67563
6.68335
6.70959
6.77846
6.90482
7.08794
7.3127
7.56154
7.81885
8.06881
8.29278
8.46978
8.57827
8.60316
8.5548
8.42246
8.15213
7.59102
512.618
525.856
4.378
4.58392
4.79222
5.0077
5.22159
5.42768
5.62184
5.80089
5.96232
6.10381
6.22276
6.31764
6.3916
6.44785
6.48977
6.52529
6.56766
6.62596
6.72073
6.85753
7.03461
7.24657
7.48173
7.73036
7.97783
8.20535
8.39452
8.52038
8.5605
8.5253
8.40915
8.16684
7.67544
513.187
525.864
4.35642
4.52427
4.68211
4.85396
5.03468
5.21751
5.39789
5.56787
5.72182
5.85629
5.97109
6.06833
6.151
6.22109
6.28531
6.35348
6.43758
6.54519
6.67128
6.81562
6.98399
7.17614
7.38792
7.61232
7.84618
8.08102
8.29079
8.44471
8.50826
8.4865
8.38575
8.17476
7.73237
513.848
525.883
4.38198
4.54263
4.68319
4.8258
4.97682
5.13078
5.27566
5.41307
5.54514
5.6703
5.78932
5.90238
6.00845
6.10866
6.20855
6.31408
6.4245
6.54231
6.67128
6.81518
6.9774
7.16845
7.3813
7.60796
7.83892
8.06351
8.26407
8.40782
8.46654
8.44554
8.34159
8.13616
7.73395
514.168
525.909
4.46017
4.63948
4.77506
4.8987
5.02134
5.14601
5.27411
5.40389
5.53229
5.65721
5.7787
5.89523
6.00448
6.11079
6.22179
6.33953
6.46457
6.59968
6.74857
6.91482
7.1006
7.30474
7.52148
7.74042
7.95017
8.13912
8.29519
8.41417
8.45274
8.40814
8.28375
8.06145
7.64403
514.131
525.925
4.53569
4.74262
4.88843
5.01535
5.13764
5.25869
5.37945
5.5003
5.62098
5.74047
5.85717
5.9696
6.07771
6.18852
6.30947
6.44033
6.58154
6.73501
6.90254
7.08579
7.28722
7.50332
7.72563
7.94155
8.13821
8.30196
8.41646
8.46018
8.45087
8.3674
8.218
7.96936
7.5153
513.612
525.926
4.55409
4.78201
4.93957
5.07196
5.19745
5.3191
5.43876
5.55696
5.6735
5.78817
5.90045
6.00958
6.11838
6.23682
6.37181
6.51622
6.67245
6.8431
7.02587
7.21897
7.41934
7.62398
7.8286
8.02387
8.19755
8.3365
8.42768
8.46002
8.42643
8.32113
8.15324
7.87835
7.37346
512.516
525.915
4.55247
4.78512
4.94521
5.078
5.20261
5.32327
5.44174
5.55844
5.67304
5.78511
5.89414
5.99957
6.10939
6.23586
6.38001
6.53343
6.69463
6.86571
7.04918
7.24772
7.46416
7.69386
7.91767
8.12183
8.29462
8.42062
8.48638
8.48512
8.42071
8.29359
8.10586
7.8082
7.28198
511.679
525.898
4.5291
4.76362
4.92712
5.06128
5.18453
5.30019
5.41118
5.5196
5.62666
5.73281
5.8385
5.94647
6.06812
6.21047
6.3614
6.5168
6.6792
6.85256
7.04006
7.24421
7.46419
7.69563
7.92654
8.14236
8.318
8.44075
8.49748
8.48658
8.40696
8.26646
8.06411
7.75031
7.21755
511.584
525.882
4.47699
4.69414
4.85257
4.98531
5.10766
5.22207
5.33081
5.43585
5.53861
5.63938
5.73999
5.85223
5.98379
6.12594
6.27332
6.42791
6.59305
6.77267
6.97135
7.19137
7.43213
7.68287
7.92789
8.1483
8.32984
8.45594
8.51002
8.49149
8.401
8.24875
8.03278
7.702
7.17363
511.683
525.871
4.4355
4.63907
4.79047
4.91709
5.03455
5.1461
5.25418
5.36063
5.46695
5.57473
5.6902
5.81832
5.95688
6.101
6.24931
6.40454
6.56989
6.75019
6.95104
7.1744
7.41871
7.67504
7.92975
8.1611
8.34863
8.47532
8.52505
8.49566
8.3916
8.22319
7.99237
7.64833
7.12065
511.927
525.872
4.43151
4.63526
4.78676
4.91259
5.02935
5.14046
5.24837
5.35484
5.46094
5.57194
5.69508
5.82931
5.96944
6.1127
6.25901
6.41146
6.5763
6.7597
6.96412
7.18956
7.43423
7.69153
7.94174
8.1666
8.3512
8.47872
8.52654
8.4894
8.36916
8.18384
7.94268
7.59432
7.07698
512.168
525.877
4.44424
4.66208
4.82591
4.95636
5.07377
5.18654
5.29792
5.40992
5.52504
5.64742
5.77826
5.91449
6.05384
6.19586
6.34205
6.49599
6.66212
6.84355
7.04168
7.25788
7.48863
7.72541
7.95601
8.16639
8.34873
8.47606
8.52546
8.48412
8.34793
8.14413
7.89299
7.54304
7.04505
512.465
525.891
4.48415
4.72884
4.91718
5.06241
5.1844
5.2984
5.41198
5.52785
5.64761
5.77195
5.90098
6.03435
6.17242
6.31525
6.46215
6.61598
6.78189
6.96115
7.15355
7.35501
7.56181
7.77109
7.97646
8.16655
8.33362
8.45378
8.50729
8.45645
8.30232
8.08135
7.82271
7.47516
6.99455
512.826
525.908
4.53118
4.80295
5.01143
5.16954
5.29829
5.41538
5.53127
5.6499
5.77293
5.90149
6.03606
6.17639
6.32135
6.46897
6.61829
6.77368
6.93844
7.11168
7.29025
7.47181
7.65488
7.83821
8.01952
8.18962
8.33414
8.44075
8.47457
8.40757
8.23778
8.00548
7.74374
7.40346
6.94066
513.145
525.93
4.5845
4.88106
5.10384
5.26801
5.40058
5.52391
5.64808
5.77465
5.90481
6.0395
6.1793
6.32439
6.47447
6.62854
6.7848
6.94114
7.09746
7.25652
7.41849
7.58239
7.74743
7.91289
8.07617
8.22959
8.35877
8.44054
8.43876
8.34199
8.15201
7.9107
7.64885
7.31874
6.87228
513.332
525.952
4.63341
4.94683
5.17657
5.34124
5.47877
5.61174
5.74552
5.88115
6.01957
6.16163
6.30799
6.45897
6.61449
6.77367
6.93345
7.09051
7.24138
7.38638
7.53064
7.67715
7.82571
7.97572
8.12381
8.26237
8.36819
8.41596
8.37649
8.24275
8.03622
7.7943
7.54191
7.22923
6.79392
513.347
525.966
4.66052
4.98391
5.22045
5.38851
5.53262
5.67558
5.81881
5.96343
6.11043
6.2605
6.41411
6.57094
6.7295
6.88803
7.04462
7.19724
7.34348
7.48018
7.61001
7.74047
7.87566
8.01562
8.15206
8.27679
8.36114
8.36753
8.28599
8.12312
7.90494
7.6714
7.44136
7.16051
6.75515
513.253
525.976
4.67741
5.00585
5.24721
5.42198
5.57409
5.72515
5.87584
6.02735
6.18131
6.33795
6.4956
6.65279
6.81001
6.96631
7.11903
7.26724
7.40968
7.54354
7.66466
7.77991
7.90087
8.02807
8.15559
8.25929
8.30392
8.27499
8.16225
7.97875
7.76214
7.55324
7.35906
7.12232
6.756
513.329
525.981
4.68332
5.01486
5.26108
5.44302
5.60361
5.76181
5.91791
6.07291
6.22783
6.38346
6.54016
6.69748
6.85336
7.00741
7.15777
7.30359
7.44267
7.57224
7.69074
7.79953
7.90705
8.01507
8.10986
8.17287
8.18364
8.12244
7.9876
7.80254
7.6095
7.44525
7.2953
7.10604
6.78741
513.514
525.985
4.68718
5.0208
5.26714
5.45824
5.63036
5.79549
5.95395
6.10723
6.25717
6.40582
6.55482
6.7052
6.85697
7.00904
7.15947
7.30569
7.44436
7.57097
7.68296
7.77999
7.86702
7.94397
7.99892
8.01527
7.98066
7.88631
7.74261
7.58268
7.44741
7.34584
7.23749
7.08728
6.81131
513.693
525.987
4.68828
5.02215
5.26407
5.45968
5.6404
5.81318
5.97657
6.13129
6.27947
6.42338
6.56494
6.70555
6.84592
6.98591
7.12443
7.2596
7.38864
7.50751
7.6116
7.69863
7.76673
7.8104
7.81881
7.78506
7.70589
7.5939
7.47788
7.39424
7.34693
7.28552
7.19354
7.04737
6.7732
513.613
525.983
4.67274
5.00353
5.24425
5.44452
5.63459
5.81356
5.98039
6.13707
6.28599
6.42934
6.56887
6.70557
6.83951
6.97115
7.09925
7.22177
7.3357
7.43688
7.5208
7.58427
7.62401
7.62857
7.59447
7.52683
7.44111
7.36855
7.33115
7.33176
7.31844
7.26456
7.16726
7.00458
6.70541
512.969
525.972
4.63255
4.95265
5.19405
5.39993
5.59769
5.78307
5.95522
6.11543
6.26576
6.40838
6.54515
6.67737
6.80558
6.92943
7.04759
7.15778
7.25688
7.34072
7.4049
7.4451
7.45729
7.4348
7.38313
7.31898
7.27027
7.26255
7.3024
7.32141
7.30439
7.24198
7.1338
6.96132
6.6575
512.035
525.955
4.56926
4.8661
5.10439
5.31406
5.51769
5.7091
5.88675
6.05151
6.2052
6.34973
6.48673
6.61727
6.7417
6.8595
6.96928
7.06879
7.15491
7.2236
7.27071
7.29132
7.28387
7.24966
7.20197
7.17139
7.18284
7.24402
7.29483
7.32157
7.29928
7.22148
7.09577
6.90301
6.58288
511.603
525.937
4.4908
4.75111
4.97843
5.1875
5.39415
5.59031
5.77342
5.94351
6.10177
6.24968
6.38856
6.51926
6.64198
6.75614
6.86034
6.95235
7.02919
7.08723
7.12284
7.1328
7.12119
7.09692
7.08196
7.10151
7.1621
7.24091
7.3058
7.32644
7.28811
7.19592
7.0566
6.84827
6.52094
511.57
525.921
4.40594
4.61633
4.82022
5.0195
5.22184
5.41791
5.60377
5.7782
5.9413
6.09375
6.23632
6.36951
6.49331
6.60707
6.70936
6.79805
6.87033
6.92293
6.95235
6.96308
6.9635
6.96686
6.99597
7.05615
7.13618
7.2259
7.29722
7.31621
7.2725
7.16784
7.01568
6.79677
6.48241
511.862
525.911
4.34045
4.49891
4.66538
4.8422
5.02897
5.216
5.39797
5.57223
5.73749
5.89318
6.03908
6.17494
6.30022
6.41391
6.51431
6.59915
6.66506
6.71234
6.74515
6.76923
6.79431
6.83803
6.90433
6.98924
7.08593
7.18667
7.26323
7.2853
7.23618
7.12011
6.95607
6.72973
6.42619
512.307
525.911
4.32472
4.45032
4.56556
4.69099
4.84687
5.01089
5.17683
5.34166
5.50197
5.6554
5.80014
5.93467
6.05761
6.16699
6.25924
6.33708
6.40512
6.46609
6.52286
6.58008
6.64241
6.71972
6.813
6.91903
7.0317
7.14158
7.22419
7.24636
7.18805
7.05965
6.88854
6.66472
6.3788
512.735
525.916
4.32648
4.44844
4.5541
4.64937
4.74146
4.84331
4.97116
5.11148
5.2526
5.39104
5.52322
5.64361
5.75397
5.85681
5.95586
6.05599
6.15748
6.25599
6.34715
6.43129
6.51699
6.61443
6.72459
6.84467
6.96722
7.07933
7.16011
7.17693
7.11158
6.97375
6.79985
6.58743
6.3289
513.163
525.925
4.34237
4.46499
4.56367
4.65029
4.7357
4.82381
4.91607
5.00699
5.09633
5.18669
5.28386
5.39228
5.50913
5.6315
5.75645
5.88103
6.00242
6.11771
6.22396
6.32112
6.41721
6.52432
6.64519
6.77586
6.90496
7.01605
7.08961
7.09557
7.01837
6.87084
6.70149
6.51371
6.2924
513.657
525.935
4.37127
4.50531
4.60395
4.68435
4.76009
4.83715
4.91833
5.00362
5.08901
5.17389
5.26179
5.35661
5.45841
5.56648
5.67964
5.79636
5.91464
6.03177
6.14457
6.25113
6.35938
6.47847
6.60464
6.73293
6.85687
6.95693
7.00985
6.99898
6.90817
6.75618
6.59727
6.44167
6.26745
514.26
525.944
4.40221
4.55215
4.65826
4.74145
4.81812
4.89273
4.9662
5.03926
5.11289
5.1858
5.26247
5.34862
5.44405
5.54791
5.65898
5.7758
5.8962
6.01696
6.13457
6.24633
6.35833
6.47868
6.60343
6.72363
6.82601
6.89591
6.91448
6.8771
6.7664
6.62266
6.48631
6.36552
6.23237
514.785
525.952
4.42862
4.59187
4.70617
4.79522
4.87832
4.96083
5.0421
5.11982
5.19358
5.26195
5.33062
5.40748
5.49464
5.59207
5.69869
5.8128
5.93197
6.05228
6.16996
6.28265
6.39548
6.51243
6.6262
6.72364
6.79368
6.82269
6.80332
6.72123
6.60183
6.48186
6.38734
6.29869
6.17713
514.906
525.958
4.44474
4.61843
4.74141
4.83766
4.92974
5.0259
5.12347
5.215
5.29677
5.36871
5.43784
5.51315
5.59859
5.69428
5.79918
5.91122
6.02759
6.14403
6.25655
6.36176
6.46277
6.5582
6.63957
6.6976
6.71941
6.69975
6.63456
6.54318
6.45617
6.40929
6.34768
6.25542
6.09615
514.642
525.96
4.44563
4.62055
4.74667
4.84813
4.95381
5.0737
5.19898
5.31811
5.4146
5.48707
5.55242
5.62468
5.70727
5.80008
5.9015
6.00876
6.11834
6.22561
6.3264