/*--------------------------------*- C++ -*----------------------------------*\
| =========                 |                                                 |
| \\      /  F ield         | OpenFOAM: The Open Source CFD Toolbox           |
|  \\    /   O peration     | Version:  v1906                                 |
|   \\  /    A nd           | Web:      www.OpenFOAM.com                      |
|    \\/     M anipulation  |                                                 |
\*---------------------------------------------------------------------------*/
FoamFile
{
    version     2.0;
    format      ascii;
    class       surfaceScalarField;
    location    "1000";
    object      phi;
}
// * * * * * * * * * * * * * * * * * * * * * * * * * * * * * * * * * * * * * //

dimensions      [1 0 -1 0 0 0 0];
oriented        oriented;


internalField   nonuniform List<scalar> 
228225
(
-2.69055e-06
2.77782e-06
-1.69723e-07
-5.54315e-06
3.14467e-06
-2.92093e-07
-7.6537e-06
2.41582e-06
-3.05308e-07
-9.1561e-06
1.78266e-06
-2.80303e-07
-1.03205e-05
1.40381e-06
-2.39483e-07
-1.132e-05
1.21021e-06
-2.10743e-07
-1.22315e-05
1.10188e-06
-1.90463e-07
-1.30946e-05
1.03362e-06
-1.70556e-07
-1.39283e-05
9.85047e-07
-1.51401e-07
-1.47422e-05
9.45553e-07
-1.31744e-07
-1.55404e-05
9.09459e-07
-1.11306e-07
-1.63236e-05
8.72925e-07
-8.98219e-08
-1.70897e-05
8.33358e-07
-6.73167e-08
-1.78339e-05
7.88003e-07
-4.38485e-08
-1.85529e-05
7.38561e-07
-1.96046e-08
-1.92414e-05
6.83189e-07
5.25898e-09
-1.98925e-05
6.20476e-07
3.06283e-08
-2.05026e-05
5.53816e-07
5.61573e-08
-2.10721e-05
4.88289e-07
8.1248e-08
-2.16113e-05
4.33892e-07
1.05176e-07
-2.21386e-05
3.99731e-07
1.27566e-07
-2.2669e-05
3.81381e-07
1.48938e-07
-2.31924e-05
3.52312e-07
1.70992e-07
-2.3652e-05
2.6501e-07
1.94581e-07
-2.39563e-05
8.62987e-08
2.17966e-07
-2.39744e-05
-2.22076e-07
2.40071e-07
-2.35472e-05
-6.88131e-07
2.60887e-07
-2.23981e-05
-1.4226e-06
2.73387e-07
-2.03805e-05
-2.29503e-06
2.77343e-07
-1.75132e-05
-3.12577e-06
2.58393e-07
-1.39063e-05
-3.8243e-06
2.17334e-07
-9.88764e-06
-4.18717e-06
1.68297e-07
-5.75213e-06
-4.24163e-06
1.0577e-07
-2.00975e-06
-3.7904e-06
4.77042e-08
-2.00237e-06
-7.36893e-09
-7.85676e-07
3.65912e-06
-9.5732e-08
-2.10935e-06
4.66019e-06
-1.91973e-07
-3.16641e-06
3.68797e-06
-2.15247e-07
-3.60572e-06
2.41866e-06
-1.96891e-07
-3.59475e-06
1.56372e-06
-1.71072e-07
-3.33818e-06
1.10106e-06
-1.476e-07
-2.96805e-06
8.48551e-07
-1.16998e-07
-2.56639e-06
7.1618e-07
-8.44014e-08
-2.18209e-06
6.50777e-07
-5.02161e-08
-1.84231e-06
6.19947e-07
-1.4361e-08
-1.56035e-06
6.03925e-07
2.33966e-08
-1.34173e-06
5.91158e-07
6.29735e-08
-1.18322e-06
5.75443e-07
9.92455e-08
-1.08827e-06
5.54119e-07
1.38792e-07
-1.06904e-06
5.29151e-07
1.9004e-07
-1.13528e-06
5.05126e-07
2.44172e-07
-1.30078e-06
4.82605e-07
3.03258e-07
-1.58405e-06
4.68223e-07
3.68761e-07
-2.00374e-06
4.66999e-07
4.40903e-07
-2.57674e-06
4.88019e-07
5.18806e-07
-3.31515e-06
5.35629e-07
6.02453e-07
-4.2115e-06
5.95954e-07
6.81743e-07
-5.22943e-06
6.2858e-07
7.41646e-07
-6.32994e-06
5.71052e-07
7.94463e-07
-7.39048e-06
3.32013e-07
8.14844e-07
-8.233e-06
-1.99433e-07
8.19918e-07
-8.6357e-06
-1.08248e-06
7.97112e-07
-8.52297e-06
-2.28974e-06
7.54499e-07
-8.01075e-06
-3.50443e-06
6.9728e-07
-7.14502e-06
-4.62455e-06
6.33146e-07
-6.0134e-06
-5.52263e-06
5.66825e-07
-4.57336e-06
-6.12871e-06
5.01606e-07
-2.91741e-06
-6.34949e-06
4.52075e-07
-1.14063e-06
-5.89164e-06
3.24673e-07
-3.2845e-06
1.41489e-07
-1.77691e-07
3.91081e-06
-7.40926e-08
-7.987e-07
5.44201e-06
-1.6091e-07
-1.57301e-06
4.65365e-06
-1.91479e-07
-2.16883e-06
3.20339e-06
-1.89035e-07
-2.45732e-06
2.02659e-06
-1.74522e-07
-2.51132e-06
1.31657e-06
-1.61643e-07
-2.46732e-06
9.52071e-07
-1.47648e-07
-2.40156e-06
7.83266e-07
-1.32982e-07
-2.36285e-06
7.29238e-07
-1.17296e-07
-2.37248e-06
7.29929e-07
-1.00486e-07
-2.43458e-06
7.48539e-07
-8.26316e-08
-2.54846e-06
7.67596e-07
-6.26867e-08
-2.71244e-06
7.79747e-07
-4.04463e-08
-2.92644e-06
7.83087e-07
-1.50737e-08
-3.18772e-06
7.76316e-07
1.40223e-08
-3.50851e-06
7.78669e-07
4.71592e-08
-3.9042e-06
7.8811e-07
9.00953e-08
-4.37385e-06
7.98506e-07
1.39283e-07
-4.91389e-06
8.12082e-07
1.94897e-07
-5.50223e-06
8.20999e-07
2.55295e-07
-6.09014e-06
8.05983e-07
3.175e-07
-6.61601e-06
7.44849e-07
3.76934e-07
-6.95524e-06
5.36492e-07
4.31273e-07
-7.03497e-06
1.71182e-07
4.79568e-07
-6.56935e-06
-6.57225e-07
5.23558e-07
-5.67774e-06
-1.65351e-06
5.62412e-07
-4.58692e-06
-2.76203e-06
5.88642e-07
-3.6035e-06
-3.86478e-06
5.91543e-07
-2.77995e-06
-4.89396e-06
5.65909e-07
-2.1179e-06
-5.79018e-06
5.03501e-07
-1.55545e-06
-6.49569e-06
4.10535e-07
-1.04129e-06
-6.93354e-06
2.90591e-07
-5.35237e-07
-7.04005e-06
1.8443e-07
-1.50017e-07
-6.40503e-06
1.28096e-07
-3.51257e-06
7.80643e-08
-2.64282e-08
3.96501e-06
-2.789e-08
-4.23243e-07
5.93189e-06
-9.31691e-08
-9.8644e-07
5.33683e-06
-1.20103e-07
-1.52e-06
3.85561e-06
-1.18792e-07
-1.89481e-06
2.50485e-06
-1.03583e-07
-2.1267e-06
1.63288e-06
-8.45704e-08
-2.29298e-06
1.18307e-06
-6.48395e-08
-2.43241e-06
9.70096e-07
-4.75172e-08
-2.56827e-06
9.00398e-07
-3.54248e-08
-2.69835e-06
8.82105e-07
-2.22044e-08
-2.83376e-06
8.92757e-07
-8.91775e-09
-2.99311e-06
9.22001e-07
4.84639e-09
-3.20629e-06
9.72779e-07
2.00661e-08
-3.50963e-06
1.04968e-06
3.66945e-08
-3.93892e-06
1.15023e-06
5.53231e-08
-4.5034e-06
1.26333e-06
7.97853e-08
-5.19671e-06
1.37011e-06
1.11301e-07
-5.99598e-06
1.44786e-06
1.49911e-07
-6.84866e-06
1.47062e-06
1.94165e-07
-7.67005e-06
1.40038e-06
2.4204e-07
-8.33473e-06
1.17866e-06
2.92042e-07
-8.68222e-06
7.49843e-07
3.42549e-07
-8.70517e-06
1.58211e-07
4.01321e-07
-8.11622e-06
-8.74995e-07
4.5736e-07
-7.17858e-06
-2.10244e-06
5.07761e-07
-6.11117e-06
-3.24694e-06
5.26219e-07
-5.09036e-06
-4.29682e-06
5.14179e-07
-4.16855e-06
-5.2509e-06
4.64504e-07
-3.33897e-06
-6.10069e-06
3.77339e-07
-2.57415e-06
-6.81719e-06
2.62356e-07
-1.85237e-06
-7.35698e-06
1.39674e-07
-1.17707e-06
-7.6497e-06
4.10374e-08
-5.78368e-07
-7.63683e-06
-1.64342e-09
-1.58586e-07
-6.82006e-06
-4.39115e-09
-3.68639e-06
1.52409e-08
-1.15032e-07
4.08037e-06
-3.88982e-10
-5.38883e-07
6.38616e-06
-3.04807e-08
-1.1324e-06
5.97191e-06
-4.16244e-08
-1.77943e-06
4.52918e-06
-2.66115e-08
-2.37511e-06
3.0948e-06
5.64609e-09
-2.88518e-06
2.09507e-06
4.78075e-08
-3.2967e-06
1.5131e-06
8.14102e-08
-3.64592e-06
1.21386e-06
1.05391e-07
-3.98142e-06
1.1151e-06
1.2074e-07
-4.34065e-06
1.1027e-06
1.3857e-07
-4.75538e-06
1.15563e-06
1.51805e-07
-5.26446e-06
1.26937e-06
1.61675e-07
-5.88941e-06
1.42791e-06
1.69788e-07
-6.61666e-06
1.5994e-06
1.77506e-07
-7.41136e-06
1.7579e-06
1.8702e-07
-8.22813e-06
1.88071e-06
1.9939e-07
-9.01882e-06
1.9424e-06
2.18408e-07
-9.6886e-06
1.87179e-06
2.45864e-07
-1.01234e-05
1.62446e-06
2.81022e-07
-1.02339e-05
1.18165e-06
3.29239e-07
-1.00819e-05
6.44784e-07
3.81953e-07
-9.38072e-06
-3.73884e-07
4.22621e-07
-8.34635e-06
-1.3288e-06
4.52746e-07
-7.1575e-06
-2.51492e-06
4.51218e-07
-6.17963e-06
-3.51214e-06
4.31956e-07
-5.37316e-06
-4.44499e-06
3.91702e-07
-4.66472e-06
-5.32948e-06
3.24346e-07
-3.98764e-06
-6.15346e-06
2.25595e-07
-3.30716e-06
-6.8905e-06
1.09441e-07
-2.60912e-06
-7.51319e-06
-1.92447e-09
-1.8963e-06
-7.98028e-06
-8.94168e-08
-1.19062e-06
-8.21742e-06
-1.37844e-07
-5.49723e-07
-8.13853e-06
-1.38977e-07
-1.03246e-07
-7.17503e-06
-9.11994e-08
-3.77655e-06
-1.30824e-08
-3.57968e-08
4.09975e-06
1.63903e-08
-3.83301e-07
6.7265e-06
7.13973e-09
-9.34136e-07
6.51879e-06
3.93294e-09
-1.58414e-06
5.15779e-06
2.13762e-08
-2.18949e-06
3.6426e-06
5.75247e-08
-2.70286e-06
2.50277e-06
1.05644e-07
-3.16525e-06
1.82618e-06
1.493e-07
-3.67553e-06
1.54293e-06
1.81196e-07
-4.23902e-06
1.47613e-06
2.02451e-07
-4.90746e-06
1.54911e-06
2.22023e-07
-5.70974e-06
1.72511e-06
2.32807e-07
-6.64031e-06
1.96281e-06
2.3713e-07
-7.64838e-06
2.19823e-06
2.37763e-07
-8.66685e-06
2.37819e-06
2.39696e-07
-9.6266e-06
2.4694e-06
2.48279e-07
-1.04669e-05
2.45686e-06
2.64167e-07
-1.11247e-05
2.31416e-06
2.86042e-07
-1.15334e-05
1.96544e-06
3.15149e-07
-1.15781e-05
1.32906e-06
3.40219e-07
-1.13379e-05
5.89932e-07
3.51538e-07
-1.09027e-05
-1.39637e-07
3.49343e-07
-1.02304e-05
-1.35445e-06
3.08476e-07
-9.42791e-06
-2.40999e-06
2.78864e-07
-8.82513e-06
-3.36962e-06
2.52076e-07
-8.23842e-06
-4.30984e-06
2.11144e-07
-7.59387e-06
-5.24517e-06
1.558e-07
-6.84741e-06
-6.15552e-06
7.97294e-08
-5.98529e-06
-7.01461e-06
-8.18823e-10
-5.02344e-06
-7.77552e-06
-7.66807e-08
-3.99529e-06
-8.40492e-06
-1.36282e-07
-2.94423e-06
-8.86064e-06
-1.70562e-07
-1.91334e-06
-9.0708e-06
-1.77367e-07
-9.6422e-07
-8.93668e-06
-1.50768e-07
-2.5298e-07
-7.79356e-06
-9.24159e-08
-4.01466e-06
-1.48532e-08
-1.01491e-08
4.09194e-06
1.79621e-08
-2.52039e-07
6.94634e-06
2.20619e-08
-6.81226e-07
6.92367e-06
2.43151e-08
-1.23311e-06
5.66669e-06
4.2987e-08
-1.78664e-06
4.11373e-06
8.23952e-08
-2.30692e-06
2.892e-06
1.3105e-07
-2.83713e-06
2.18355e-06
1.72847e-07
-3.43751e-06
1.94412e-06
1.99196e-07
-4.09087e-06
1.90841e-06
2.21085e-07
-4.80391e-06
2.02557e-06
2.36589e-07
-5.55954e-06
2.23548e-06
2.4527e-07
-6.31113e-06
2.46567e-06
2.4876e-07
-7.01018e-06
2.64693e-06
2.50376e-07
-7.62519e-06
2.74038e-06
2.52854e-07
-8.14471e-06
2.73149e-06
2.57455e-07
-8.55409e-06
2.60357e-06
2.62719e-07
-8.82199e-06
2.31405e-06
2.68093e-07
-8.92733e-06
1.80929e-06
2.61578e-07
-8.9042e-06
1.07361e-06
2.32416e-07
-8.90763e-06
3.90092e-07
2.03378e-07
-8.7406e-06
-4.82895e-07
1.76371e-07
-8.67257e-06
-1.55661e-06
1.34295e-07
-8.61071e-06
-2.57985e-06
1.08154e-07
-8.44539e-06
-3.62176e-06
8.69691e-08
-8.12246e-06
-4.6966e-06
6.39837e-08
-7.62358e-06
-5.77874e-06
3.48405e-08
-6.96346e-06
-6.80909e-06
-6.38162e-09
-6.16676e-06
-7.75561e-06
-5.55488e-08
-5.2552e-06
-8.58506e-06
-1.01858e-07
-4.26227e-06
-9.25872e-06
-1.38976e-07
-3.22458e-06
-9.73497e-06
-1.63228e-07
-2.17719e-06
-9.94484e-06
-1.73194e-07
-1.18146e-06
-9.77368e-06
-1.58462e-07
-3.6756e-07
-8.49478e-06
-1.12318e-07
-4.34807e-06
-3.41578e-08
6.02243e-08
4.02442e-06
7.30155e-09
-7.53909e-08
7.07385e-06
8.10575e-09
-3.94724e-07
7.23129e-06
1.17079e-08
-8.63287e-07
6.10776e-06
2.74991e-08
-1.37733e-06
4.56259e-06
6.51868e-08
-1.89649e-06
3.29678e-06
1.14378e-07
-2.4214e-06
2.54977e-06
1.58688e-07
-2.93274e-06
2.26707e-06
1.88399e-07
-3.44673e-06
2.21006e-06
2.12346e-07
-3.94375e-06
2.29333e-06
2.29264e-07
-4.40649e-06
2.45921e-06
2.39023e-07
-4.82355e-06
2.63977e-06
2.42975e-07
-5.19592e-06
2.77671e-06
2.42607e-07
-5.5189e-06
2.82397e-06
2.39403e-07
-5.79003e-06
2.77115e-06
2.31511e-07
-5.99727e-06
2.59118e-06
2.19663e-07
-6.13803e-06
2.26078e-06
1.94069e-07
-6.23073e-06
1.74661e-06
1.55424e-07
-6.36793e-06
1.09595e-06
1.14909e-07
-6.53885e-06
4.69602e-07
9.1475e-08
-6.61158e-06
-4.69009e-07
5.89106e-08
-6.7171e-06
-1.49489e-06
4.38811e-08
-6.75703e-06
-2.57574e-06
3.58742e-08
-6.69185e-06
-3.70986e-06
2.29855e-08
-6.50883e-06
-4.88156e-06
1.98236e-09
-6.1959e-06
-6.06464e-06
-2.69882e-08
-5.73122e-06
-7.21106e-06
-6.26813e-08
-5.12488e-06
-8.25497e-06
-1.06959e-07
-4.40392e-06
-9.15481e-06
-1.51195e-07
-3.60432e-06
-9.86945e-06
-1.88862e-07
-2.7622e-06
-1.03633e-05
-2.13769e-07
-1.91034e-06
-1.05764e-05
-2.20272e-07
-1.09639e-06
-1.03875e-05
-2.00107e-07
-3.8765e-07
-9.0536e-06
-1.49947e-07
-4.67208e-06
-6.3636e-08
7.89073e-08
3.95186e-06
-6.36785e-09
1.8037e-08
7.14773e-06
-1.3024e-08
-2.23676e-07
7.48569e-06
-1.27003e-08
-6.52107e-07
6.53376e-06
2.40718e-09
-1.14801e-06
5.01737e-06
4.10998e-08
-1.62176e-06
3.67713e-06
9.33723e-08
-2.02093e-06
2.80517e-06
1.43756e-07
-2.32979e-06
2.39386e-06
1.82055e-07
-2.58957e-06
2.26152e-06
2.08303e-07
-2.79963e-06
2.27481e-06
2.28584e-07
-2.96013e-06
2.37911e-06
2.40602e-07
-3.07987e-06
2.51554e-06
2.43982e-07
-3.17145e-06
2.62828e-06
2.40023e-07
-3.24696e-06
2.66986e-06
2.29629e-07
-3.30828e-06
2.62232e-06
2.10159e-07
-3.36577e-06
2.46539e-06
1.83309e-07
-3.43766e-06
2.18401e-06
1.48693e-07
-3.54613e-06
1.74892e-06
1.06213e-07
-3.69603e-06
1.17951e-06
6.63872e-08
-3.80591e-06
5.39226e-07
4.0324e-08
-4.01532e-06
-2.7276e-07
1.32349e-08
-4.20252e-06
-1.30163e-06
-5.98268e-09
-4.32368e-06
-2.43081e-06
-2.37034e-08
-4.36875e-06
-3.61869e-06
-4.6037e-08
-4.33033e-06
-4.84432e-06
-7.55912e-08
-4.19715e-06
-6.08336e-06
-1.1439e-07
-3.93856e-06
-7.30657e-06
-1.63017e-07
-3.5478e-06
-8.43827e-06
-2.07403e-07
-3.04899e-06
-9.41051e-06
-2.43049e-07
-2.48173e-06
-1.0173e-05
-2.63658e-07
-1.89156e-06
-1.06911e-05
-2.62311e-07
-1.31383e-06
-1.09197e-05
-2.3443e-07
-7.77247e-07
-1.07441e-05
-1.79945e-07
-2.93196e-07
-9.42023e-06
-1.17335e-07
-4.91031e-06
-5.49766e-08
1.23587e-07
3.84882e-06
-2.05884e-08
1.56428e-07
7.15746e-06
-4.26193e-08
1.29291e-08
7.67931e-06
-5.01554e-08
-3.57398e-07
6.94321e-06
-3.91644e-08
-8.46277e-07
5.50652e-06
-3.22598e-10
-1.31533e-06
4.08805e-06
5.80796e-08
-1.67563e-06
3.04539e-06
1.2003e-07
-1.91639e-06
2.46394e-06
1.70648e-07
-2.0847e-06
2.22358e-06
2.06221e-07
-2.20408e-06
2.16321e-06
2.30957e-07
-2.28274e-06
2.21166e-06
2.46075e-07
-2.33559e-06
2.31657e-06
2.51783e-07
-2.37929e-06
2.42303e-06
2.48927e-07
-2.42953e-06
2.48146e-06
2.38622e-07
-2.4974e-06
2.4708e-06
2.19367e-07
-2.59281e-06
2.3669e-06
1.93877e-07
-2.71986e-06
2.15012e-06
1.60905e-07
-2.88467e-06
1.79205e-06
1.21644e-07
-3.07014e-06
1.28146e-06
8.34661e-08
-3.21205e-06
6.29048e-07
5.20303e-08
-3.43905e-06
-7.20618e-08
2.62312e-08
-3.63414e-06
-1.10142e-06
-5.20848e-09
-3.7612e-06
-2.26734e-06
-3.64866e-08
-3.7922e-06
-3.52007e-06
-6.77165e-08
-3.69914e-06
-4.83782e-06
-9.96776e-08
-3.47255e-06
-6.17454e-06
-1.35525e-07
-3.12494e-06
-7.48479e-06
-1.69501e-07
-2.68218e-06
-8.68787e-06
-1.93289e-07
-2.18033e-06
-9.70852e-06
-2.03961e-07
-1.66265e-06
-1.04928e-05
-1.98004e-07
-1.17101e-06
-1.10108e-05
-1.72061e-07
-7.33669e-07
-1.12315e-05
-1.25672e-07
-3.73996e-07
-1.1038e-05
-6.59977e-08
-1.10452e-07
-9.66292e-06
-2.11981e-08
-5.01028e-06
-1.04888e-08
1.24906e-07
3.75222e-06
-2.83893e-08
2.12425e-07
7.13264e-06
-6.27653e-08
1.71063e-07
7.79976e-06
-7.91681e-08
-6.32266e-08
7.24527e-06
-6.78514e-08
-4.59281e-07
5.92483e-06
-2.2342e-08
-8.88623e-07
4.47085e-06
4.64411e-08
-1.25183e-06
3.28978e-06
1.18725e-07
-1.51455e-06
2.54924e-06
1.77331e-07
-1.72132e-06
2.21292e-06
2.1736e-07
-1.91074e-06
2.10939e-06
2.4317e-07
-2.09083e-06
2.13108e-06
2.60609e-07
-2.27117e-06
2.22826e-06
2.68594e-07
-2.46055e-06
2.34499e-06
2.67358e-07
-2.66645e-06
2.42981e-06
2.57496e-07
-2.8914e-06
2.45647e-06
2.3922e-07
-3.14057e-06
2.40087e-06
2.15147e-07
-3.41806e-06
2.2419e-06
1.85643e-07
-3.71816e-06
1.94501e-06
1.47062e-07
-4.01712e-06
1.47566e-06
1.04686e-07
-4.28825e-06
8.35489e-07
6.45991e-08
-4.54254e-06
1.493e-07
3.28242e-08
-4.72534e-06
-9.14501e-07
-4.24972e-09
-4.81297e-06
-2.14387e-06
-3.5966e-08
-4.78495e-06
-3.48631e-06
-6.18902e-08
-4.62109e-06
-4.92106e-06
-8.07341e-08
-4.29442e-06
-6.40262e-06
-9.87062e-08
-3.82892e-06
-7.84001e-06
-1.10386e-07
-3.26236e-06
-9.13804e-06
-1.16485e-07
-2.6405e-06
-1.02149e-05
-1.15541e-07
-2.01094e-06
-1.10181e-05
-1.04309e-07
-1.41161e-06
-1.15307e-05
-7.95707e-08
-8.71241e-07
-1.17316e-05
-4.02989e-08
-4.17486e-07
-1.14969e-05
4.98574e-09
-9.95269e-08
-1.00063e-05
2.51058e-08
-5.11662e-06
6.79575e-09
1.23424e-07
3.65561e-06
-2.69556e-08
2.53804e-07
7.06668e-06
-6.4545e-08
2.89579e-07
7.84207e-06
-7.81948e-08
1.86302e-07
7.40963e-06
-6.12055e-08
-7.32099e-08
6.195e-06
-1.08074e-08
-4.08899e-07
4.74711e-06
5.92656e-08
-7.47999e-07
3.50002e-06
1.28698e-07
-1.05473e-06
2.67266e-06
1.83171e-07
-1.34492e-06
2.28471e-06
2.18276e-07
-1.6303e-06
2.15649e-06
2.3816e-07
-1.91754e-06
2.16633e-06
2.51876e-07
-2.21032e-06
2.26219e-06
2.5872e-07
-2.5128e-06
2.38806e-06
2.59294e-07
-2.83269e-06
2.49508e-06
2.54511e-07
-3.16273e-06
2.54493e-06
2.41446e-07
-3.50077e-06
2.52143e-06
2.17355e-07
-3.84402e-06
2.40038e-06
1.84615e-07
-4.1896e-06
2.1476e-06
1.42806e-07
-4.52343e-06
1.71429e-06
9.50059e-08
-4.82788e-06
1.09035e-06
4.93756e-08
-5.09249e-06
3.99784e-07
1.38591e-08
-5.2938e-06
-6.89289e-07
-2.42014e-08
-5.41052e-06
-1.97352e-06
-5.39513e-08
-5.42206e-06
-3.39876e-06
-7.63582e-08
-5.30998e-06
-4.94279e-06
-9.06753e-08
-5.04631e-06
-6.56653e-06
-1.00057e-07
-4.62084e-06
-8.16046e-06
-1.05324e-07
-4.05029e-06
-9.60268e-06
-1.06199e-07
-3.3784e-06
-1.07886e-05
-9.85371e-08
-2.66626e-06
-1.16525e-05
-7.80344e-08
-1.96616e-06
-1.21898e-05
-4.11785e-08
-1.31333e-06
-1.23967e-05
1.19781e-08
-7.22086e-07
-1.21536e-05
6.49872e-08
-2.27832e-07
-1.05726e-05
7.14495e-08
-5.36303e-06
1.85583e-08
1.11632e-07
3.56179e-06
-1.79922e-08
2.39993e-07
6.98124e-06
-4.30904e-08
3e-07
7.82928e-06
-4.73857e-08
2.66531e-07
7.47175e-06
-2.8818e-08
1.12662e-07
6.33264e-06
1.60392e-08
-1.27086e-07
4.91362e-06
7.30302e-08
-4.11836e-07
3.65896e-06
1.25584e-07
-7.11126e-07
2.80617e-06
1.6559e-07
-1.01185e-06
2.39269e-06
1.92582e-07
-1.31257e-06
2.24359e-06
2.13457e-07
-1.61598e-06
2.24136e-06
2.28216e-07
-1.92271e-06
2.33283e-06
2.35941e-07
-2.23356e-06
2.4631e-06
2.35646e-07
-2.54882e-06
2.58456e-06
2.25623e-07
-2.8655e-06
2.65183e-06
2.09617e-07
-3.17515e-06
2.64768e-06
1.83242e-07
-3.46996e-06
2.54501e-06
1.50005e-07
-3.75209e-06
2.32059e-06
1.08926e-07
-4.02803e-06
1.9296e-06
6.04059e-08
-4.29135e-06
1.34132e-06
1.21066e-08
-4.47018e-06
6.07416e-07
-2.9109e-08
-4.71345e-06
-3.75998e-07
-7.03785e-08
-4.91868e-06
-1.66731e-06
-1.01325e-07
-5.05231e-06
-3.14594e-06
-1.19545e-07
-5.08309e-06
-4.7824e-06
-1.29976e-07
-4.99305e-06
-6.53001e-06
-1.2688e-07
-4.74091e-06
-8.30454e-06
-1.08334e-07
-4.28638e-06
-9.96843e-06
-8.90497e-08
-3.67205e-06
-1.13465e-05
-5.66749e-08
-2.97631e-06
-1.23376e-05
-1.08487e-08
-2.26668e-06
-1.29482e-05
4.85757e-08
-1.58379e-06
-1.31975e-05
1.17767e-07
-9.28661e-07
-1.29816e-05
1.7258e-07
-3.2243e-07
-1.13346e-05
1.55142e-07
-5.73279e-06
4.72996e-08
1.22553e-07
3.4489e-06
-9.90963e-09
2.66811e-07
6.86076e-06
-2.3959e-08
3.4194e-07
7.77896e-06
-2.49812e-08
3.32257e-07
7.48737e-06
-6.13375e-09
2.08688e-07
6.42801e-06
2.79673e-08
8.90183e-10
5.05245e-06
6.87041e-08
-2.53948e-07
3.80671e-06
1.06823e-07
-5.2388e-07
2.93767e-06
1.38183e-07
-7.89658e-07
2.4961e-06
1.62154e-07
-1.05483e-06
2.32649e-06
1.8207e-07
-1.32159e-06
2.3111e-06
1.96805e-07
-1.58728e-06
2.39355e-06
2.04746e-07
-1.84875e-06
2.52001e-06
2.04319e-07
-2.09969e-06
2.64074e-06
1.94535e-07
-2.33736e-06
2.7131e-06
1.76176e-07
-2.55203e-06
2.71344e-06
1.48677e-07
-2.73678e-06
2.6179e-06
1.11605e-07
-2.89373e-06
2.40902e-06
6.82181e-08
-3.03544e-06
2.05283e-06
1.81163e-08
-3.16675e-06
1.50486e-06
-3.26382e-08
-3.23644e-06
7.55364e-07
-7.87251e-08
-3.38535e-06
-1.12545e-07
-1.15092e-07
-3.56631e-06
-1.34738e-06
-1.39564e-07
-3.74991e-06
-2.81793e-06
-1.44996e-07
-3.90617e-06
-4.49127e-06
-1.35413e-07
-4.00739e-06
-6.32326e-06
-1.06108e-07
-4.00366e-06
-8.24775e-06
-6.10798e-08
-3.85522e-06
-1.01285e-05
1.11328e-08
-3.49954e-06
-1.17782e-05
7.5616e-08
-2.97158e-06
-1.30092e-05
1.43321e-07
-2.34845e-06
-1.37829e-05
2.11261e-07
-1.70136e-06
-1.41191e-05
2.74167e-07
-1.0497e-06
-1.39383e-05
3.04394e-07
-4.00716e-07
-1.22291e-05
2.44497e-07
-6.2131e-06
7.9555e-08
1.34192e-07
3.31849e-06
-4.01983e-09
3.09105e-07
6.6998e-06
-1.41495e-08
4.15121e-07
7.68792e-06
-1.51814e-08
4.26266e-07
7.4796e-06
-3.59981e-09
3.12097e-07
6.52081e-06
2.11364e-08
1.0567e-07
5.20698e-06
5.16313e-08
-1.44775e-07
3.97477e-06
8.21026e-08
-3.97981e-07
3.08141e-06
1.09209e-07
-6.31184e-07
2.59798e-06
1.31088e-07
-8.53248e-07
2.39841e-06
1.49928e-07
-1.06771e-06
2.36204e-06
1.63295e-07
-1.26927e-06
2.42534e-06
1.69544e-07
-1.45389e-06
2.53708e-06
1.67318e-07
-1.61601e-06
2.6469e-06
1.55724e-07
-1.74669e-06
2.7092e-06
1.34353e-07
-1.83723e-06
2.69776e-06
1.05965e-07
-1.8808e-06
2.59244e-06
6.87729e-08
-1.87724e-06
2.37823e-06
2.69301e-08
-1.82755e-06
2.02099e-06
-1.82071e-08
-1.74049e-06
1.48356e-06
-6.61753e-08
-1.63714e-06
7.60067e-07
-1.08515e-07
-1.5029e-06
-1.07892e-07
-1.39417e-07
-1.41767e-06
-1.282e-06
-1.51174e-07
-1.37173e-06
-2.71687e-06
-1.47612e-07
-1.36413e-06
-4.3776e-06
-1.2189e-07
-1.39171e-06
-6.22343e-06
-7.28142e-08
-1.4603e-06
-8.17915e-06
-5.47096e-10
-1.51777e-06
-1.01495e-05
7.79436e-08
-1.50144e-06
-1.19696e-05
1.74563e-07
-1.36325e-06
-1.34124e-05
2.64642e-07
-1.16409e-06
-1.43234e-05
3.41038e-07
-9.38211e-07
-1.47394e-05
3.94108e-07
-6.95616e-07
-1.45805e-05
3.9904e-07
-3.69496e-07
-1.28659e-05
3.09872e-07
-6.69455e-06
1.11932e-07
1.14305e-07
3.20109e-06
2.86515e-09
2.96399e-07
6.52723e-06
-9.72163e-09
4.14101e-07
7.58553e-06
-1.54727e-08
4.32067e-07
7.47115e-06
-9.69396e-09
3.10566e-07
6.63406e-06
8.03769e-09
8.13203e-08
5.40226e-06
3.37224e-08
-1.98154e-07
4.19136e-06
6.26318e-08
-4.79284e-07
3.2723e-06
8.99984e-08
-7.36895e-07
2.74328e-06
1.12095e-07
-9.86818e-07
2.51756e-06
1.30569e-07
-1.23029e-06
2.4621e-06
1.43204e-07
-1.4572e-06
2.50353e-06
1.48515e-07
-1.65949e-06
2.59377e-06
1.45391e-07
-1.82624e-06
2.68006e-06
1.33362e-07
-1.94588e-06
2.71418e-06
1.14427e-07
-2.00848e-06
2.67356e-06
8.65604e-08
-2.00688e-06
2.53786e-06
5.27069e-08
-1.9221e-06
2.27887e-06
1.42777e-08
-1.73623e-06
1.86204e-06
-2.72683e-08
-1.44437e-06
1.25859e-06
-6.73194e-08
-1.10237e-06
5.17453e-07
-9.98746e-08
-6.38165e-07
-4.53029e-07
-1.19635e-07
-1.04031e-07
-1.69642e-06
-1.20322e-07
4.52878e-07
-3.17188e-06
-1.025e-07
9.65167e-07
-4.82971e-06
-6.07639e-08
1.36268e-06
-6.62691e-06
5.37302e-09
1.59438e-06
-8.50239e-06
9.09715e-08
1.6077e-06
-1.03563e-05
1.93028e-07
1.41019e-06
-1.20712e-05
2.98701e-07
1.08863e-06
-1.34773e-05
3.86074e-07
7.37077e-07
-1.4416e-05
4.43772e-07
3.86311e-07
-1.48609e-05
4.71827e-07
8.25571e-08
-1.47221e-05
4.44807e-07
-7.61658e-08
-1.305e-05
3.42004e-07
-6.92146e-06
1.5072e-07
3.42611e-08
3.15462e-06
1.20402e-08
1.25103e-07
6.43913e-06
-2.88705e-09
1.79468e-07
7.54443e-06
-1.3416e-08
1.60625e-07
7.49811e-06
-8.27e-09
1.98746e-09
6.78691e-06
5.6265e-09
-2.88902e-07
5.66031e-06
3.26623e-08
-6.62215e-07
4.49886e-06
6.56251e-08
-1.07216e-06
3.58459e-06
9.7459e-08
-1.48827e-06
3.03711e-06
1.22112e-07
-1.90947e-06
2.79756e-06
1.41047e-07
-2.34298e-06
2.74196e-06
1.53484e-07
-2.77568e-06
2.77831e-06
1.57742e-07
-3.18788e-06
2.85272e-06
1.53073e-07
-3.55603e-06
2.90847e-06
1.39569e-07
-3.87125e-06
2.90775e-06
1.21468e-07
-4.11513e-06
2.82098e-06
9.62563e-08
-4.26327e-06
2.61782e-06
6.79146e-08
-4.27885e-06
2.25638e-06
3.77675e-08
-4.11753e-06
1.69277e-06
7.58423e-09
-3.75212e-06
9.09658e-07
-1.68667e-08
-3.25155e-06
4.42566e-08
-2.78563e-08
-2.36795e-06
-1.32337e-06
-1.38113e-08
-1.2426e-06
-2.84628e-06
2.39418e-08
-1.48806e-08
-4.48013e-06
7.99632e-08
1.1893e-06
-6.18596e-06
1.51519e-07
2.23713e-06
-7.91064e-06
2.35377e-07
2.99468e-06
-9.58615e-06
3.25703e-07
3.36781e-06
-1.11429e-05
4.13e-07
3.32492e-06
-1.25127e-05
4.83942e-07
2.94294e-06
-1.36222e-05
5.26506e-07
2.39372e-06
-1.43959e-05
5.28763e-07
1.77855e-06
-1.47421e-05
4.96096e-07
1.12593e-06
-1.44928e-05
4.22648e-07
4.46078e-07
-1.26894e-05
3.18327e-07
-6.64607e-06
1.70713e-07
-6.66285e-08
3.19932e-06
2.18247e-08
-1.06403e-07
6.4645e-06
1.42961e-08
-1.48134e-07
7.58605e-06
3.56093e-11
-2.45347e-07
7.60111e-06
-5.85801e-09
-4.79811e-07
7.01138e-06
9.91833e-09
-8.66706e-07
6.00469e-06
4.24323e-08
-1.38499e-06
4.93263e-06
8.44213e-08
-2.0095e-06
4.08488e-06
1.24148e-07
-2.71255e-06
3.58744e-06
1.52654e-07
-3.48059e-06
3.39452e-06
1.71034e-07
-4.28966e-06
3.36943e-06
1.81556e-07
-5.11932e-06
3.42477e-06
1.83143e-07
-5.92608e-06
3.48387e-06
1.75572e-07
-6.67728e-06
3.49872e-06
1.60902e-07
-7.35761e-06
3.44253e-06
1.45505e-07
-7.93489e-06
3.2736e-06
1.24613e-07
-8.35882e-06
2.9383e-06
1.03414e-07
-8.55926e-06
2.36817e-06
8.86023e-08
-8.47314e-06
1.5198e-06
8.68112e-08
-8.19324e-06
5.27663e-07
1.02078e-07
-7.21568e-06
-1.0663e-06
1.33e-07
-5.81786e-06
-2.92378e-06
2.02604e-07
-4.20598e-06
-4.71995e-06
2.61845e-07
-2.53774e-06
-6.46478e-06
3.16491e-07
-9.38791e-07
-8.15244e-06
3.67649e-07
4.66613e-07
-9.73039e-06
4.14481e-07
1.58587e-06
-1.11608e-05
4.55579e-07
2.33265e-06
-1.23766e-05
4.87137e-07
2.67544e-06
-1.33578e-05
5.0249e-07
2.65276e-06
-1.40932e-05
4.93893e-07
2.35548e-06
-1.45499e-05
4.51577e-07
1.92376e-06
-1.4666e-05
3.55868e-07
1.40236e-06
-1.42009e-05
2.30067e-07
6.98573e-07
-1.21298e-05
1.45348e-07
-6.06939e-06
1.21903e-07
-1.33024e-07
3.31265e-06
1.96228e-08
-2.84548e-07
6.60009e-06
1.58834e-08
-4.3518e-07
7.73231e-06
4.32084e-09
-6.49067e-07
7.80721e-06
7.73171e-09
-9.74849e-07
7.30676e-06
3.03465e-08
-1.46772e-06
6.42611e-06
7.13935e-08
-2.14862e-06
5.49329e-06
1.20183e-07
-3.01743e-06
4.79117e-06
1.62459e-07
-4.03571e-06
4.41665e-06
1.89022e-07
-5.16939e-06
4.32422e-06
2.03933e-07
-6.36192e-06
4.35442e-06
2.07483e-07
-7.54682e-06
4.40835e-06
2.01282e-07
-8.677e-06
4.42602e-06
1.87972e-07
-9.74892e-06
4.39471e-06
1.75891e-07
-1.07279e-05
4.26139e-06
1.60092e-07
-1.15658e-05
3.96333e-06
1.48071e-07
-1.21795e-05
3.40555e-06
1.46396e-07
-1.24176e-05
2.44459e-06
1.61641e-07
-1.22011e-05
1.11026e-06
1.92919e-07
-1.17266e-05
-1.69242e-07
2.22401e-07
-1.05123e-05
-2.54982e-06
2.69099e-07
-9.17013e-06
-4.54056e-06
2.745e-07
-7.81284e-06
-6.34185e-06
2.64541e-07
-6.45352e-06
-8.07697e-06
2.52795e-07
-5.12269e-06
-9.73371e-06
2.50376e-07
-3.8676e-06
-1.1247e-05
2.61459e-07
-2.74054e-06
-1.25531e-05
2.65151e-07
-1.77307e-06
-1.36117e-05
2.67575e-07
-1.01186e-06
-1.43764e-05
2.57352e-07
-4.22547e-07
-1.49067e-05
2.24166e-07
2.0934e-08
-1.5155e-05
1.61614e-07
3.66757e-07
-1.50876e-05
7.57442e-08
5.48469e-07
-1.43699e-05
-1.2604e-08
3.89507e-07
-1.19175e-05
-5.30782e-08
-5.67647e-06
-3.33434e-09
-6.7281e-08
3.37756e-06
2.30557e-09
-2.5395e-07
6.77569e-06
1.10003e-08
-4.95788e-07
7.96464e-06
9.45138e-09
-7.58044e-07
8.05239e-06
1.70226e-08
-1.11569e-06
7.62074e-06
4.36167e-08
-1.65568e-06
6.87889e-06
8.71691e-08
-2.42374e-06
6.12827e-06
1.33032e-07
-3.41398e-06
5.61405e-06
1.67337e-07
-4.57354e-06
5.39135e-06
1.84843e-07
-5.80794e-06
5.36712e-06
1.91507e-07
-7.0578e-06
5.4192e-06
1.85101e-07
-8.27005e-06
5.44941e-06
1.71225e-07
-9.43378e-06
5.43066e-06
1.59145e-07
-1.05238e-05
5.33683e-06
1.48014e-07
-1.15121e-05
5.1086e-06
1.41172e-07
-1.23497e-05
4.65812e-06
1.42972e-07
-1.29027e-05
3.80341e-06
1.55328e-07
-1.30351e-05
2.40549e-06
1.71749e-07
-1.29913e-05
8.93628e-07
1.73269e-07
-1.25443e-05
-7.57617e-07
1.41854e-07
-1.20423e-05
-3.12242e-06
7.12056e-08
-1.15756e-05
-5.01992e-06
1.32289e-08
-1.11297e-05
-6.75286e-06
-3.41624e-08
-1.06613e-05
-8.47455e-06
-7.00614e-08
-1.01334e-05
-1.01677e-05
-9.32137e-08
-9.50627e-06
-1.17771e-05
-9.63042e-08
-8.75801e-06
-1.32255e-05
-7.50634e-08
-7.82902e-06
-1.44831e-05
-5.68211e-08
-6.65885e-06
-1.54899e-05
-5.57404e-08
-5.33898e-06
-1.61413e-05
-8.44643e-08
-3.97153e-06
-1.63789e-05
-1.42601e-07
-2.50962e-06
-1.63407e-05
-2.07679e-07
-1.13704e-06
-1.55024e-05
-2.37903e-07
-2.02302e-07
-1.26315e-05
-2.17688e-07
-5.76548e-06
-1.13213e-07
1.69127e-07
3.24393e-06
-3.56752e-08
2.64763e-07
6.71742e-06
-3.75701e-08
2.50065e-07
8.00807e-06
-2.89144e-08
1.38373e-07
8.16546e-06
-1.53668e-09
-1.05232e-07
7.84225e-06
2.19225e-08
-5.33065e-07
7.25114e-06
5.54069e-08
-1.16682e-06
6.67089e-06
9.09841e-08
-1.98543e-06
6.31653e-06
1.15996e-07
-2.91741e-06
6.1964e-06
1.26813e-07
-3.87987e-06
6.20492e-06
1.24566e-07
-4.82363e-06
6.24929e-06
1.13592e-07
-5.73721e-06
6.26228e-06
1.00658e-07
-6.60215e-06
6.21041e-06
8.51605e-08
-7.39306e-06
6.05626e-06
7.14581e-08
-8.10765e-06
5.7633e-06
5.98914e-08
-8.73507e-06
5.23662e-06
4.89656e-08
-9.23717e-06
4.26773e-06
3.785e-08
-9.60668e-06
2.76979e-06
5.31171e-09
-9.94718e-06
1.2794e-06
-4.50858e-08
-1.02324e-05
-3.45353e-07
-1.26805e-07
-1.08011e-05
-2.33669e-06
-2.16736e-07
-1.13413e-05
-4.20707e-06
-2.72297e-07
-1.17494e-05
-6.04283e-06
-3.01501e-07
-1.2063e-05
-7.84892e-06
-3.11646e-07
-1.23001e-05
-9.62555e-06
-3.04492e-07
-1.24249e-05
-1.13634e-05
-2.88275e-07
-1.23268e-05
-1.30552e-05
-2.67765e-07
-1.18878e-05
-1.46732e-05
-2.48142e-07
-1.09596e-05
-1.6186e-05
-2.31618e-07
-9.50775e-06
-1.73758e-05
-2.16763e-07
-7.4905e-06
-1.81756e-05
-2.1983e-07
-5.24107e-06
-1.83955e-05
-1.93835e-07
-2.91255e-06
-1.76771e-05
-1.52301e-07
-8.80024e-07
-1.44893e-05
-1.72194e-07
-6.45599e-06
-1.89458e-07
4.44641e-07
2.86875e-06
-6.98208e-08
9.35798e-07
6.30501e-06
-7.90301e-08
1.26922e-06
7.73974e-06
-6.53755e-08
1.47725e-06
8.02777e-06
-7.06575e-08
1.5154e-06
7.83958e-06
-3.58161e-08
1.38301e-06
7.3822e-06
1.02019e-09
1.06621e-06
6.95596e-06
3.14701e-08
6.35546e-07
6.70208e-06
4.48771e-08
1.72676e-07
6.61254e-06
4.65173e-08
-2.77732e-07
6.61843e-06
3.67085e-08
-6.92763e-07
6.64573e-06
1.84346e-08
-1.06105e-06
6.63488e-06
-4.44621e-09
-1.36914e-06
6.54986e-06
-3.14548e-08
-1.61631e-06
6.3639e-06
-6.05365e-08
-1.82203e-06
6.05459e-06
-8.55998e-08
-2.03849e-06
5.56473e-06
-1.11677e-07
-2.36995e-06
4.75771e-06
-1.58507e-07
-2.93112e-06
3.55711e-06
-2.26081e-07
-3.43602e-06
2.10743e-06
-3.23004e-07
-3.96597e-06
6.05515e-07
-4.20742e-07
-4.81135e-06
-9.69869e-07
-5.21217e-07
-5.79079e-06
-2.6386e-06
-5.88758e-07
-6.76474e-06
-4.44241e-06
-6.26143e-07
-7.70671e-06
-6.26904e-06
-6.37527e-07
-8.61003e-06
-8.0987e-06
-6.23099e-07
-9.44449e-06
-9.94193e-06
-5.8654e-07
-1.01453e-05
-1.18238e-05
-5.3006e-07
-1.05861e-05
-1.37789e-05
-4.53025e-07
-1.06246e-05
-1.57878e-05
-3.58982e-07
-1.00263e-05
-1.77384e-05
-2.35167e-07
-8.78526e-06
-1.93458e-05
-7.04633e-08
-7.07425e-06
-2.0192e-05
8.59626e-08
-4.91922e-06
-2.00577e-05
2.26292e-07
-2.12061e-06
-1.74438e-05
1.57288e-07
-8.45374e-06
-1.22792e-07
7.37165e-07
2.22548e-06
-9.45779e-08
1.78801e-06
5.39093e-06
-1.3745e-07
2.63945e-06
7.01391e-06
-1.26165e-07
3.25054e-06
7.52004e-06
-1.03796e-07
3.73945e-06
7.454e-06
-1.03759e-07
4.05767e-06
7.1494e-06
-8.59102e-08
4.27348e-06
6.8136e-06
-7.3969e-08
4.43754e-06
6.60176e-06
-6.41953e-08
4.60075e-06
6.51462e-06
-6.56986e-08
4.7951e-06
6.50168e-06
-7.79448e-08
5.03957e-06
6.50539e-06
-1.04437e-07
5.3404e-06
6.46937e-06
-1.35598e-07
5.70942e-06
6.34822e-06
-1.67642e-07
6.1324e-06
6.13831e-06
-1.97616e-07
6.60141e-06
5.81996e-06
-2.3459e-07
7.08966e-06
5.35628e-06
-2.79994e-07
7.49626e-06
4.68421e-06
-3.33285e-07
7.70745e-06
3.74499e-06