/*--------------------------------*- C++ -*----------------------------------*\
| =========                 |                                                 |
| \\      /  F ield         | OpenFOAM: The Open Source CFD Toolbox           |
|  \\    /   O peration     | Version:  v1906                                 |
|   \\  /    A nd           | Web:      www.OpenFOAM.com                      |
|    \\/     M anipulation  |                                                 |
\*---------------------------------------------------------------------------*/
FoamFile
{
    version     2.0;
    format      ascii;
    class       volScalarField;
    location    "1000";
    object      T;
}
// * * * * * * * * * * * * * * * * * * * * * * * * * * * * * * * * * * * * * //

dimensions      [0 0 0 1 0 0 0];


internalField   nonuniform List<scalar> 
78750
(
285.692
281.777
279.683
278.891
278.65
278.561
278.5
278.44
278.378
278.315
278.252
278.187
278.12
278.052
277.983
277.916
277.851
277.789
277.73
277.674
277.623
277.576
277.533
277.495
277.46
277.428
277.391
277.33
277.213
277.005
276.657
276.141
275.403
274.313
272.651
286.029
282.563
280.439
279.425
279.065
278.958
278.933
278.929
278.933
278.943
278.954
278.967
278.983
279.002
279.025
279.052
279.084
279.121
279.161
279.206
279.264
279.348
279.471
279.632
279.819
280.017
280.208
280.304
280.282
280.063
279.698
279.195
278.521
277.47
275.729
286.456
283.69
281.79
280.665
280.187
280.049
280.039
280.074
280.128
280.185
280.241
280.294
280.344
280.389
280.429
280.462
280.487
280.504
280.514
280.52
280.528
280.542
280.568
280.609
280.667
280.732
280.76
280.721
280.578
280.322
279.941
279.433
278.768
277.733
275.984
286.782
284.444
282.733
281.624
281.064
280.841
280.789
280.798
280.831
280.87
280.906
280.936
280.959
280.977
280.99
281.002
281.014
281.028
281.047
281.074
281.112
281.164
281.239
281.347
281.46
281.518
281.521
281.443
281.265
280.989
280.614
280.131
279.469
278.393
276.629
286.951
284.852
283.258
282.182
281.609
281.375
281.323
281.327
281.348
281.369
281.377
281.376
281.373
281.371
281.372
281.382
281.408
281.454
281.521
281.615
281.749
281.93
282.116
282.269
282.346
282.358
282.305
282.165
281.941
281.63
281.229
280.723
280.036
278.931
277.15
287.091
285.187
283.706
282.67
282.08
281.819
281.737
281.726
281.73
281.737
281.74
281.744
281.755
281.78
281.824
281.887
281.976
282.101
282.282
282.508
282.732
282.928
283.048
283.088
283.088
283.025
282.887
282.683
282.418
282.09
281.691
281.197
280.509
279.379
277.589
287.188
285.436
284.057
283.067
282.469
282.183
282.081
282.06
282.059
282.069
282.087
282.117
282.159
282.219
282.303
282.418
282.567
282.775
283.047
283.305
283.518
283.673
283.75
283.765
283.73
283.627
283.464
283.242
282.962
282.62
282.208
281.701
280.992
279.831
278.022
287.271
285.652
284.375
283.435
282.829
282.519
282.398
282.369
282.37
282.391
282.426
282.476
282.545
282.637
282.757
282.908
283.106
283.36
283.623
283.857
284.049
284.175
284.223
284.222
284.155
284.025
283.837
283.594
283.296
282.94
282.519
282.006
281.288
280.114
278.302
287.336
285.823
284.636
283.743
283.134
282.807
282.67
282.635
282.637
282.661
282.705
282.766
282.848
282.953
283.085
283.243
283.442
283.685
283.932
284.153
284.34
284.471
284.526
284.525
284.459
284.331
284.141
283.892
283.589
283.233
282.82
282.327
281.641
280.494
278.686
287.403
285.999
284.92
284.089
283.473
283.116
282.946
282.887
282.878
282.897
282.937
282.999
283.083
283.19
283.323
283.48
283.671
283.898
284.135
284.35
284.528
284.659
284.718
284.717
284.649
284.519
284.328
284.079
283.775
283.419
283.01
282.529
281.857
280.718
278.902
287.468
286.18
285.2
284.434
283.827
283.442
283.232
283.14
283.116
283.125
283.162
283.225
283.314
283.428
283.569
283.735
283.928
284.153
284.388
284.597
284.762
284.876
284.917
284.898
284.815
284.669
284.462
284.197
283.879
283.512
283.096
282.604
281.918
280.766
278.947
287.526
286.345
285.441
284.728
284.14
283.737
283.498
283.382
283.35
283.36
283.403
283.476
283.578
283.708
283.863
284.04
284.236
284.451
284.672
284.864
285.01
285.106
285.132
285.098
285.002
284.842
284.62
284.339
284.006
283.628
283.205
282.709
282.02
280.869
279.057
287.566
286.463
285.612
284.936
284.371
283.97
283.729
283.616
283.59
283.612
283.669
283.756
283.871
284.012
284.174
284.353
284.538
284.731
284.929
285.102
285.233
285.318
285.341
285.309
285.215
285.054
284.824
284.525
284.169
283.772
283.337
282.838
282.149
280.995
279.177
287.6
286.559
285.747
285.104
284.564
284.179
283.952
283.854
283.843
283.878
283.947
284.045
284.168
284.313
284.475
284.647
284.82
284.992
285.161
285.314
285.434
285.513
285.544
285.527
285.449
285.299
285.063
284.742
284.351
283.917
283.452
282.93
282.223
281.05
279.221
287.635
286.655
285.882
285.271
284.763
284.398
284.187
284.104
284.104
284.15
284.228
284.332
284.458
284.602
284.759
284.921
285.08
285.232
285.377
285.513
285.625
285.709
285.76
285.77
285.717
285.575
285.334
284.995
284.572
284.093
283.583
283.027
282.295
281.106
279.258
287.673
286.763
286.03
285.455
284.981
284.634
284.432
284.354
284.359
284.411
284.492
284.6
284.727
284.869
285.02
285.173
285.32
285.459
285.594
285.721
285.829
285.911
285.949
285.918
285.808
285.621
285.356
285.012
284.593
284.112
283.595
283.032
282.299
281.11
279.26
287.711
286.869
286.18
285.642
285.202
284.871
284.677
284.603
284.615
284.674
284.761
284.874
285.005
285.148
285.296
285.441
285.58
285.715
285.846
285.957
286.032
286.052
286.01
285.909
285.748
285.529
285.253
284.92
284.527
284.074
283.569
283.006
282.272
281.086
279.231
287.743
286.965
286.32
285.822
285.417
285.109
284.925
284.861
284.88
284.95
285.05
285.174
285.315
285.464
285.613
285.759
285.899
286.024
286.115
286.136
286.086
285.963
285.787
285.571
285.315
285.036
284.74
284.424
284.079
283.689
283.239
282.703
281.972
280.786
278.951
287.769
287.042
286.439
285.977
285.604
285.317
285.148
285.1
285.135
285.226
285.354
285.508
285.672
285.832
285.979
286.102
286.185
286.192
286.113
285.956
285.726
285.5
285.288
285.081
284.873
284.644
284.386
284.094
283.768
283.402
282.987
282.49
281.796
280.647
278.853
287.791
287.107
286.539
286.106
285.761
285.501
285.362
285.346
285.414
285.537
285.695
285.866
286.025
286.158
286.25
286.275
286.225
286.095
285.896
285.686
285.509
285.364
285.223
285.065
284.882
284.666
284.414
284.125
283.799
283.437
283.03
282.546
281.86
280.725
278.959
287.814
287.17
286.631
286.223
285.905
285.677
285.575
285.586
285.677
285.818
285.983
286.143
286.274
286.362
286.385
286.344
286.228
286.053
285.882
285.745
285.651
285.577
285.5
285.404
285.277
285.109
284.888
284.608
284.273
283.896
283.485
283.015
282.363
281.259
279.512
287.843
287.247
286.737
286.353
286.064
285.866
285.787
285.813
285.91
286.05
286.205
286.346
286.452
286.513
286.519
286.469
286.359
286.226
286.123
286.07
286.051
286.05
286.053
286.053
286.037
285.991
285.893
285.707
285.398
284.964
284.458
283.923
283.244
282.13
280.375
287.877
287.341
286.867
286.505
286.242
286.066
285.997
286.015
286.099
286.224
286.364
286.492
286.591
286.654
286.677
286.661
286.607
286.532
286.464
286.429
286.429
286.455
286.512
286.589
286.676
286.757
286.819
286.798
286.624
286.235
285.614
284.887
284.094
282.96
281.151
287.914
287.447
287.021
286.683
286.436
286.27
286.189
286.188
286.24
286.339
286.457
286.575
286.678
286.755
286.805
286.83
286.829
286.804
286.776
286.754
286.746
286.75
286.772
286.823
286.89
286.942
286.937
286.901
286.787
286.535
286.021
285.245
284.387
283.246
281.369
287.94
287.53
287.153
286.844
286.616
286.459
286.372
286.354
286.383
286.455
286.55
286.653
286.75
286.833
286.897
286.943
286.971
286.986
286.993
286.998
287.007
287.019
287.033
287.032
287.02
286.982
286.919
286.808
286.632
286.352
285.899
285.199
284.352
283.193
281.306
287.954
287.575
287.233
286.953
286.748
286.609
286.531
286.51
286.536
286.597
286.679
286.769
286.856
286.934
286.999
287.051
287.09
287.121
287.145
287.163
287.165
287.139
287.075
286.974
286.829
286.619
286.356
286.044
285.682
285.265
284.785
284.236
283.545
282.404
280.482
287.959
287.594
287.273
287.021
286.843
286.728
286.67
286.662
286.695
286.757
286.835
286.919
287
287.075
287.141
287.196
287.235
287.235
287.189
287.087
286.899
286.687
286.473
286.247
286
285.735
285.44
285.106
284.732
284.313
283.836
283.257
282.447
281.176
279.339
287.964
287.609
287.305
287.076
286.92
286.828
286.795
286.802
286.848
286.918
287.001
287.085
287.164
287.23
287.269
287.268
287.21
287.089
286.878
286.643
286.486
286.398
286.3
286.16
285.97
285.727
285.434
285.094
284.712
284.288
283.807
283.221
282.393
281.112
279.291
287.975
287.638
287.353
287.143
287.008
286.938
286.923
286.946
287.001
287.073
287.151
287.223
287.282
287.315
287.315
287.268
287.162
287
286.851
286.773
286.778
286.809
286.783
286.653
286.437
286.148
285.798
285.398
284.962
284.498
283.999
283.415
282.588
281.282
279.469
287.995
287.694
287.433
287.24
287.118
287.056
287.043
287.067
287.116
287.179
287.245
287.305
287.35
287.373
287.369
287.331
287.261
287.175
287.131
287.148
287.177
287.148
287.049
286.885
286.66
286.38
286.051
285.681
285.276
284.834
284.35
283.782
282.989
281.715
279.871
288.009
287.736
287.5
287.327
287.218
287.162
287.15
287.169
287.211
287.264
287.318
287.367
287.405
287.426
287.428
287.411
287.38
287.35
287.329
287.294
287.237
287.144
287.013
286.834
286.613
286.351
286.043
285.678
285.276
284.837
284.353
283.786
282.998
281.731
279.885
288.011
287.75
287.532
287.379
287.288
287.25
287.248
287.272
287.314
287.362
287.41
287.451
287.479
287.482
287.462
287.432
287.397
287.363
287.321
287.261
287.17
287.037
286.856
286.63
286.361
286.055
285.724
285.381
285.009
284.596
284.128
283.554
282.733
281.441
279.607
288.016
287.764
287.563
287.43
287.36
287.337
287.34
287.367
287.406
287.449
287.488
287.506
287.505
287.483
287.459
287.439
287.438
287.45
287.451
287.416
287.33
287.177
286.963
286.699
286.395
286.062
285.709
285.343
284.957
284.535
284.054
283.458
282.604
281.305
279.492
288.027
287.795
287.609
287.49
287.429
287.41
287.416
287.442
287.477
287.511
287.535
287.539
287.531
287.533
287.573
287.657
287.766
287.865
287.931
287.953
287.916
287.778
287.559
287.275
286.939
286.56
286.151
285.72
285.279
284.826
284.329
283.716
282.832
281.503
279.698
288.042
287.833
287.661
287.551
287.495
287.477
287.484
287.508
287.538
287.564
287.579
287.589
287.612
287.677
287.788
287.918
288.044
288.139
288.175
288.162
288.096
287.969
287.779
287.531
287.231
286.886
286.502
286.081
285.626
285.14
284.614
283.998
283.143
281.832
280.005
288.059
287.878
287.724
287.621
287.566
287.549
287.556
287.578
287.604
287.625
287.64
287.658
287.701
287.784
287.895
288.007
288.099
288.161
288.186
288.172
288.108
287.985
287.798
287.551
287.252
286.907
286.521
286.099
285.642
285.151
284.623
284.007
283.163
281.856
280.029
288.074
287.921
287.786
287.69
287.641
287.627
287.635
287.654
287.675
287.693
287.709
287.737
287.79
287.876
287.976
288.067
288.136
288.182
288.206
288.198
288.147
288.045
287.881
287.647
287.344
286.981
286.571
286.124
285.649
285.147
284.611
284
283.163
281.866
280.052
288.092
287.972
287.859
287.772
287.726
287.715
287.722
287.738
287.756
287.77
287.784
287.808
287.854
287.926
288.007
288.081
288.139
288.182
288.21
288.226
288.225
288.189
288.095
287.923
287.643
287.26
286.799
286.29
285.757
285.214
284.65
284.025
283.198
281.925
280.125
288.111
288.03
287.947
287.873
287.827
287.814
287.818
287.829
287.845
287.858
287.868
287.879
287.901
287.941
287.997
288.058
288.112
288.156
288.192
288.221
288.245
288.274
288.311
288.3
288.162
287.839
287.355
286.759
286.113
285.487
284.87
284.231
283.42
282.163
280.361
288.131
288.088
288.04
287.989
287.946
287.925
287.925
287.93
287.94
287.953
287.965
287.973
287.983
287.997
288.019
288.05
288.082
288.118
288.154
288.189
288.226
288.269
288.325
288.33
288.275
288.069
287.702
287.188
286.55
285.836
285.139
284.459
283.64
282.366
280.497
288.146
288.137
288.12
288.094
288.064
288.04
288.032
288.031
288.035
288.047
288.061
288.073
288.084
288.095
288.106
288.115
288.13
288.153
288.181
288.217
288.275
288.328
288.34
288.318
288.186
287.95
287.608
287.151
286.572
285.891
285.171
284.469
283.651
282.382
280.498
288.161
288.18
288.189
288.185
288.17
288.15
288.134
288.128
288.129
288.137
288.152
288.167
288.181
288.193
288.205
288.218
288.238
288.275
288.323
288.369
288.384
288.369
288.288
288.116
287.856
287.519
287.115
286.652
286.137
285.575
284.963
284.308
283.501
282.229
280.323
288.18
288.229
288.253
288.253
288.238
288.22
288.212
288.21
288.213
288.222
288.232
288.245
288.264
288.291
288.327
288.368
288.407
288.426
288.416
288.37
288.273
288.115
287.895
287.621
287.297
286.926
286.509
286.052
285.563
285.051
284.519
283.93
283.143
281.86
279.973
288.207
288.293
288.333
288.336
288.333
288.333
288.342
288.36
288.382
288.409
288.441
288.473
288.5
288.519
288.518
288.494
288.442
288.353
288.217
288.035
287.816
287.566
287.286
286.977
286.651
286.311
285.958
285.582
285.172
284.718
284.216
283.644
282.862
281.587
279.726
288.259
288.424
288.504
288.528
288.535
288.542
288.552
288.564
288.577
288.591
288.595
288.587
288.563
288.519
288.452
288.355
288.215
288.012
287.759
287.497
287.24
286.989
286.742
286.499
286.239
285.953
285.637
285.291
284.912
284.494
284.025
283.466
282.675
281.396
279.557
288.265
288.452
288.557
288.607
288.629
288.634
288.632
288.627
288.618
288.601
288.574
288.533
288.472
288.386
288.262
288.096
287.89
287.672
287.477
287.295
287.115
286.927
286.722
286.492
286.234
285.946
285.627
285.278
284.896
284.476
284.005
283.436
282.626
281.34
279.513
288.253
288.429
288.525
288.575
288.599
288.604
288.6
288.592
288.578
288.555
288.521
288.47
288.397
288.296
288.162
288.004
287.839
287.681
287.534
287.39
287.239
287.069
286.871
286.638
286.368
286.06
285.72
285.352
284.956
284.529
284.055
283.481
282.657
281.361
279.546
288.22
288.344
288.418
288.471
288.514
288.543
288.558
288.561
288.552
288.531
288.497
288.447
288.378
288.286
288.177
288.061
287.947
287.839
287.733
287.623
287.5
287.353
287.171
286.946
286.674
286.355
285.995
285.604
285.188
284.746
284.262
283.683
282.852
281.542
279.723
288.204
288.301
288.369
288.425
288.475
288.513
288.537
288.546
288.54
288.522
288.492
288.45
288.397
288.333
288.263
288.191
288.116
288.04
287.959
287.869
287.764
287.634
287.469
287.26
286.998
286.68
286.313
285.906
285.468
285.005
284.502
283.903
283.051
281.723
279.893
288.194
288.275
288.339
288.393
288.442
288.485
288.517
288.536
288.539
288.53
288.511
288.482
288.447
288.407
288.361
288.309
288.251
288.187
288.117
288.036
287.94
287.818
287.66
287.457
287.199
286.888
286.521
286.108
285.658
285.177
284.653
284.036
283.179
281.847
280.009
288.188
288.257
288.318
288.373
288.424
288.471
288.509
288.533
288.545
288.543
288.531
288.512
288.487
288.456
288.419
288.374
288.321
288.261
288.19
288.102
287.991
287.853
287.682
287.469
287.209
286.901
286.545
286.146
285.702
285.22
284.694
284.082
283.23
281.902
280.058
288.19
288.264
288.329
288.389
288.443
288.489
288.523
288.544
288.553
288.553
288.545
288.529
288.507
288.477
288.438
288.392
288.337
288.272
288.195
288.103
287.989
287.849
287.675
287.46
287.201
286.896
286.544
286.147
285.705
285.223
284.696
284.084
283.239
281.913
280.065
288.196
288.28
288.351
288.413
288.463
288.5
288.528
288.545
288.553
288.553
288.545
288.53
288.506
288.474
288.435
288.387
288.331
288.264
288.184
288.087
287.967
287.817
287.633
287.409
287.145
286.839
286.492
286.108
285.684
285.213
284.691
284.08
283.236
281.913
280.064
288.198
288.285
288.358
288.419
288.465
288.5
288.524
288.539
288.546
288.545
288.536
288.52
288.494
288.461
288.421
288.373
288.315
288.246
288.16
288.054
287.922
287.759
287.561
287.326
287.052
286.74
286.39
286.005
285.588
285.134
284.627
284.024
283.184
281.875
280.035
288.197
288.283
288.355
288.412
288.454
288.483
288.504
288.518
288.524
288.523
288.514
288.498
288.474
288.442
288.404
288.356
288.298
288.225
288.137
288.028
287.892
287.727
287.528
287.294
287.02
286.706
286.35
285.956
285.527
285.064
284.555
283.955
283.122
281.823
279.994
288.194
288.273
288.339
288.391
288.429
288.456
288.476
288.489
288.496
288.495
288.489
288.475
288.455
288.427
288.392
288.347
288.291
288.221
288.135
288.029
287.899
287.741
287.552
287.327
287.061
286.748
286.387
285.982
285.541
285.068
284.556
283.957
283.13
281.837
280.015
288.188
288.257
288.316
288.363
288.398
288.424
288.444
288.458
288.467
288.47
288.467
288.458
288.442
288.419
288.388
288.348
288.299
288.238
288.163
288.071
287.958
287.821
287.653
287.447
287.193
286.883
286.512
286.088
285.628
285.143
284.627
284.031
283.21
281.927
280.112
288.184
288.245
288.297
288.34
288.373
288.397
288.417
288.432
288.443
288.449
288.451
288.447
288.436
288.419
288.394
288.362
288.323
288.275
288.216
288.145
288.056
287.944
287.802
287.619
287.38
287.072
286.685
286.234
285.745
285.241
284.714
284.115
283.296
282.015
280.2
288.183
288.244
288.297
288.339
288.37
288.394
288.413
288.428
288.44
288.447
288.449
288.447
288.44
288.428
288.41
288.388
288.359
288.325
288.283
288.231
288.165
288.076
287.959
287.8
287.582
287.283
286.888
286.408
285.882
285.344
284.797
284.19
283.371
282.086
280.267
288.185
288.249
288.304
288.347
288.379
288.402
288.421
288.436
288.447
288.455
288.459
288.458
288.454
288.447
288.435
288.421
288.402
288.38
288.352
288.315
288.264
288.194
288.096
287.959
287.767
287.487
287.1
286.61
286.056
285.483
284.91
284.293
283.473
282.182
280.353
288.189
288.264
288.326
288.374
288.408
288.431
288.449
288.463
288.474
288.482
288.486
288.487
288.484
288.479
288.472
288.462
288.451
288.436
288.416
288.388
288.346
288.283
288.191
288.056
287.844
287.542
287.147
286.667
286.122
285.546
284.959
284.336
283.517
282.221
280.379
288.197
288.286
288.359
288.415
288.453
288.479
288.498
288.512
288.523
288.53
288.534
288.534
288.533
288.529
288.523
288.516
288.507
288.495
288.477
288.45
288.405
288.336
288.231
288.07
287.843
287.538
287.144
286.664
286.122
285.547
284.96
284.336
283.518
282.222
280.378
288.206
288.31
288.395
288.458
288.502
288.532
288.555
288.572
288.584
288.592
288.597
288.598
288.597
288.593
288.587
288.58
288.57
288.557
288.537
288.504
288.45
288.369
288.248
288.069
287.826
287.504
287.103
286.631
286.1
285.533
284.949
284.325
283.503
282.202
280.355
288.214
288.332
288.428
288.499
288.548
288.583
288.61
288.631
288.647
288.658
288.665
288.668
288.667
288.664
288.658
288.65
288.638
288.621
288.595
288.555
288.493
288.4
288.261
288.06
287.787
287.444
287.034
286.564
286.042
285.482
284.901
284.276
283.452
282.15
280.305
288.221
288.353
288.459
288.536
288.588
288.627
288.66
288.685
288.705
288.719
288.729
288.734
288.735
288.733
288.726
288.716
288.702
288.681
288.65
288.604
288.534
288.425
288.261
288.044
287.762
287.418
287.015
286.555
286.04
285.483
284.9
284.274
283.45
282.15
280.308
288.229
288.375
288.491
288.572
288.628
288.671
288.706
288.735
288.758
288.775
288.787
288.794
288.796
288.795
288.788
288.777
288.76
288.735
288.7
288.644
288.554
288.424
288.249
288.018
287.736
287.404
287.014
286.56
286.055
285.51
284.938
284.311
283.485
282.183
280.335
288.238
288.398
288.524
288.609
288.668
288.715
288.754
288.785
288.81
288.829
288.842
288.85
288.853
288.852
288.845
288.831
288.811
288.781
288.73
288.652
288.536
288.372
288.159
287.908
287.625
287.307
286.945
286.526
286.045
285.511
284.941
284.317
283.491
282.186
280.336
288.247
288.423
288.558
288.648
288.711
288.761
288.803
288.836
288.862
288.882
288.896
288.905
288.908
288.905
288.895
288.877
288.847
288.799
288.723
288.6
288.424
288.204
287.953
287.688
287.408
287.103
286.765
286.384
285.951
285.46
284.918
284.307
283.484
282.18
280.328
288.256
288.447
288.591
288.687
288.754
288.809
288.853
288.888
288.916
288.937
288.951
288.958
288.959
288.951
288.934
288.904
288.856
288.781
288.651
288.459
288.234
288.005
287.782
287.546
287.288
286.993
286.654
286.266
285.83
285.354
284.833
284.233
283.407
282.102
280.26
288.262
288.462
288.616
288.718
288.792
288.851
288.899
288.937
288.966
288.987
289.001
289.006
289.002
288.987
288.96
288.915
288.848
288.74
288.578
288.385
288.188
287.994
287.794
287.573
287.321
287.024
286.674
286.273
285.829
285.345
284.817
284.208
283.372
282.064
280.233
288.261
288.462
288.619
288.731
288.815
288.882
288.934
288.976
289.007
289.029
289.042
289.044
289.036
289.014
288.979
288.928
288.854
288.744
288.6
288.443
288.289
288.135
287.971
287.78
287.545
287.248
286.878
286.442
285.957
285.445
284.905
284.286
283.437
282.128
280.31
288.256
288.451
288.607
288.724
288.817
288.892
288.952
289
289.034
289.058
289.072
289.074
289.065
289.042
289.008
288.963
288.904
288.822
288.725
288.623
288.521
288.416
288.297
288.147
287.946
287.669
287.299
286.832
286.296
285.728
285.149
284.513
283.656
282.336
280.519
288.248
288.432
288.582
288.702
288.801
288.884
288.951
289.005
289.047
289.076
289.093
289.099
289.094
289.077
289.052
289.021
288.983
288.936
288.884
288.828
288.767
288.697
288.613
288.498
288.334
288.099
287.764
287.307
286.733
286.095
285.457
284.789
283.914
282.569
280.729
288.243
288.418
288.562
288.678
288.778
288.866
288.94
289.001
289.048
289.084
289.108
289.12
289.122
289.116
289.103
289.085
289.063
289.038
289.009
288.973
288.924
288.856
288.756
288.626
288.455
288.229
287.927
287.522
287
286.371
285.676
284.957
284.067
282.7
280.801
288.244
288.422
288.563
288.675
288.773
288.859
288.935
288.999
289.051
289.092
289.121
289.14
289.149
289.151
289.147
289.138
289.123
289.099
289.063
289.014
288.948
288.86
288.747
288.601
288.417
288.181
287.879
287.49
286.99
286.38
285.685
284.958
284.069
282.704
280.796
288.252
288.445
288.592
288.703
288.797
288.881
288.955
289.018
289.07
289.112
289.142
289.163
289.176
289.179
289.174
289.159
289.134
289.098
289.046
288.976
288.883
288.763
288.611
288.423
288.193
287.911
287.569
287.161
286.685
286.142
285.526
284.832
283.948
282.583
280.643
288.266
288.482
288.643
288.757
288.851
288.932
289.002
289.061
289.109
289.146
289.172
289.187
289.192
289.187
289.171
289.141
289.093
289.026
288.939
288.828
288.691
288.524
288.32
288.074
287.78
287.432
287.031
286.581
286.09
285.567
285.012
284.381
283.515
282.146
280.225
288.281
288.524
288.702
288.823
288.917
288.996
289.061
289.112
289.15
289.175
289.189
289.192
289.183
289.16
289.117
289.051
288.965
288.86
288.734
288.584
288.408
288.199
287.953
287.66
287.324
286.949
286.538
286.091
285.61
285.096
284.543
283.918
283.068
281.734
279.873
288.294
288.555
288.747
288.876
288.97
289.043
289.098
289.137
289.163
289.176
289.175
289.159
289.128
289.075
288.997
288.901
288.79
288.663
288.519
288.352
288.16
287.941
287.695
287.425
287.126
286.79
286.414
285.997
285.538
285.038
284.495
283.878
283.041
281.719
279.865
288.294
288.555
288.749
288.88
288.974
289.044
289.094
289.126
289.139
289.136
289.118
289.083
289.03
288.956
288.866
288.766
288.658
288.538
288.405
288.261
288.094
287.901
287.68
287.427
287.139
286.811
286.439
286.022
285.563
285.066
284.529
283.919
283.086
281.766
279.918
288.287
288.533
288.721
288.849
288.94
289.005
289.046
289.068
289.07
289.056
289.027
288.982
288.921
288.849
288.77
288.686
288.596
288.498
288.391
288.264
288.116
287.945
287.746
287.515
287.245
286.928
286.558
286.137
285.671
285.172
284.64
284.039
283.212
281.894
280.05
288.269
288.482
288.648
288.763
288.845
288.902
288.937
288.952
288.951
288.934
288.904
288.862
288.811
288.755
288.695
288.632
288.565
288.489
288.402
288.298
288.178
288.036
287.869
287.666
287.418
287.113
286.742
286.311
285.832
285.322
284.784
284.182
283.354
282.031
280.186
288.239
288.395
288.522
288.616
288.684
288.733
288.765
288.782
288.786
288.777
288.759
288.733
288.703
288.669
288.631
288.59
288.544
288.49
288.425
288.348
288.257
288.147
288.012
287.841
287.62
287.335
286.975
286.537
286.039
285.509
284.958
284.349
283.516
282.187
280.34
288.203
288.296
288.376
288.443
288.497
288.539
288.572
288.596
288.613
288.623
288.626
288.624
288.617
288.606
288.591
288.57
288.541
288.503
288.457
288.402
288.336
288.254
288.147
288.005
287.815
287.561
287.228
286.807
286.31
285.761
285.189
284.568
283.729
282.392
280.538
288.193
288.273
288.344
288.403
288.449
288.485
288.516
288.542
288.565
288.582
288.595
288.602
288.604
288.6
288.59
288.575
288.555
288.529
288.498
288.459
288.409
288.344
288.256
288.134
287.966
287.737
287.431
287.039
286.56
286.013
285.424
284.788
283.939
282.591
280.724
288.194
288.278
288.353
288.412
288.457
288.492
288.522
288.548
288.57
288.588
288.602
288.611
288.615
288.614
288.609
288.6
288.588
288.571
288.549
288.519
288.478
288.419
288.334
288.21
288.033
287.791
287.493
287.132
286.688
286.162
285.577
284.934
284.084
282.737
280.863
288.201
288.301
288.387
288.45
288.494
288.528
288.557
288.583
288.604
288.622
288.636
288.647
288.653
288.655
288.654
288.649
288.639
288.626
288.606
288.577
288.534
288.469
288.372
288.23
288.035
287.79
287.493
287.136
286.708
286.206
285.638
285.003
284.157
282.822
280.95
288.211
288.329
288.429
288.5
288.546
288.582
288.612
288.638
288.66
288.678
288.693
288.704
288.711
288.715
288.714
288.709
288.698
288.682
288.658
288.623
288.573
288.497
288.387
288.235
288.039
287.799
287.508
287.156
286.729
286.227
285.661
285.025
284.177
282.85
280.989
288.22
288.352
288.464
288.543
288.594
288.634
288.667
288.696
288.719
288.738
288.754
288.765
288.772
288.775
288.772
288.764
288.75
288.728
288.697
288.657
288.603
288.526
288.419
288.279
288.105
287.895
287.634
287.303
286.875
286.346
285.746
285.084
284.226
282.895
281.04
288.226
288.372
288.493
288.579
288.635
288.679
288.716
288.747
288.773
288.793
288.809
288.819
288.825
288.826
288.821
288.81
288.792
288.767
288.734
288.693
288.645
288.584
288.504
288.404
288.28
288.124
287.919
287.629
287.199
286.618
285.939
285.221
284.326
282.989
281.1
288.233
288.392
288.522
288.613
288.674
288.722
288.762
288.796
288.823
288.845
288.86
288.87
288.875
288.875
288.868
288.855
288.837
288.812
288.782
288.748
288.711
288.67
288.62
288.557
288.475
288.351
288.144
287.809
287.335
286.71
285.98
285.223
284.325
282.991
281.11
288.241
288.414
288.554
288.646
288.71
288.762
288.806
288.843
288.873
288.896
288.913
288.924
288.929
288.928
288.921
288.909
288.892
288.87
288.845
288.818
288.791
288.761
288.721
288.661
288.553
288.387
288.144
287.796
287.311
286.688
285.967
285.208
284.307
282.974
281.07
288.248
288.432
288.58
288.676
288.743
288.798
288.845
288.885
288.918
288.945
288.964
288.978
288.985
288.986
288.981
288.971
288.956
288.938
288.917
288.894
288.869
288.835
288.781
288.685
288.544
288.334
288.02
287.585
287.04
286.403
285.702
284.957
284.052
282.704
280.774
288.252
288.444
288.6
288.701
288.772
288.83
288.881
288.924
288.96
288.989
289.012
289.028
289.038
289.042
289.04
289.033
289.021
289.006
288.986
288.961
288.928
288.878
288.79
288.654
288.434
288.102
287.653
287.107
286.494
285.834
285.148
284.428
283.531
282.183
280.279
288.254
288.452
288.615
288.722
288.797
288.859
288.913
288.959
288.997
289.029
289.055
289.073
289.086
289.092
289.093
289.088
289.078
289.062
289.038
289.005
288.956
288.878
288.751
288.534
288.196
287.745
287.222
286.657
286.067
285.459
284.828
284.147
283.279
281.957
280.093
288.254
288.453
288.621
288.735
288.817
288.884
288.942
288.991
289.032
289.066
289.094
289.115
289.129
289.137
289.139
289.135
289.124
289.104
289.073
289.027
288.96
288.857
288.685
288.41
288.04
287.604
287.128
286.613
286.056
285.461
284.835
284.16
283.29
281.965
280.108
288.252
288.447
288.616
288.737
288.828
288.903
288.966
289.019
289.064
289.1
289.13
289.153
289.169
289.178
289.181
289.176
289.162
289.137
289.099
289.044
288.966
288.852
288.673
288.407
288.07
287.685
287.255
286.771
286.225
285.623
284.987
284.308
283.437
282.106
280.257
288.247
288.434
288.602
288.731
288.831
288.915
288.985
289.044
289.092
289.132
289.164
289.188
289.205
289.216
289.218
289.212
289.196
289.169
289.127
289.069
288.994
288.887
288.726
288.503
288.224
287.895
287.506
287.047
286.509
285.901
285.252
284.566
283.691
282.353
280.501
288.244
288.424
288.588
288.72
288.827
288.919
288.997
289.062
289.116
289.16
289.194
289.221
289.24
289.251
289.253
289.247
289.231
289.203
289.163
289.109
289.041
288.95
288.816
288.633
288.4
288.11
287.754
287.321
286.8
286.194
285.532
284.833
283.947
282.6
280.742
288.242
288.419
288.58
288.71
288.818
288.913
288.999
289.073
289.134
289.184
289.222
289.252
289.272
289.285
289.288
289.282
289.267
289.24
289.202
289.154
289.094
289.013
288.9
288.744
288.543
288.288
287.973
287.583
287.096
286.5
285.819
285.097
284.202
282.856
280.996
288.241
288.417
288.576
288.705
288.811
288.906
288.995
289.078
289.15
289.206
289.249
289.281
289.304
289.317
289.322
289.317
289.303
289.278
289.243
289.199
289.146
289.078
288.983
288.857
288.694
288.49
288.235
287.907
287.469
286.885
286.171
285.407
284.492
283.147
281.283
288.243
288.421
288.58
288.706
288.809
288.903
288.993
289.078
289.155
289.219
289.267
289.303
289.329
289.344
289.351
289.348
289.336
289.314
289.282
289.242
289.195
289.138
289.064
288.97
288.854
288.712
288.534
288.29
287.929
287.384
286.634
285.789
284.829
283.488
281.612
288.244
288.425
288.586
288.709
288.808
288.9
288.989
289.076
289.156
289.224
289.276
289.315
289.344
289.363
289.373
289.373
289.365
289.346
289.319
289.285
289.245
289.199
289.143
289.075
288.995
288.897
288.773
288.598
288.314
287.834
287.089
286.149
285.127
283.803
281.902
288.247
288.433
288.598
288.722
288.821
288.91
288.997
289.081
289.161
289.232
289.287
289.328
289.359
289.38
289.392
289.395
289.389
289.374
289.351
289.322
289.288
289.249
289.201
289.144
289.075
288.99
288.873
288.691
288.404
287.935
287.208
286.245
285.221
283.927
282
288.25
288.444
288.613
288.74
288.839
288.929
289.018
289.105
289.185
289.255
289.309
289.35
289.38
289.402
289.414
289.418
289.413
289.4
289.38
289.354
289.324
289.289
289.244
289.189
289.118
289.017
288.875
288.666
288.338
287.828
287.094
286.17
285.177
283.89
281.956
288.256
288.459
288.638
288.771
288.873
288.968
289.062
289.15
289.23
289.296
289.346
289.383
289.412
289.431
289.443
289.446
289.441
289.429
289.411
289.387
289.359