/*--------------------------------*- C++ -*----------------------------------*\
| =========                 |                                                 |
| \\      /  F ield         | OpenFOAM: The Open Source CFD Toolbox           |
|  \\    /   O peration     | Version:  v1906                                 |
|   \\  /    A nd           | Web:      www.OpenFOAM.com                      |
|    \\/     M anipulation  |                                                 |
\*---------------------------------------------------------------------------*/
FoamFile
{
    version     2.0;
    format      ascii;
    class       volVectorField;
    location    "1000";
    object      U;
}
// * * * * * * * * * * * * * * * * * * * * * * * * * * * * * * * * * * * * * //

dimensions      [0 1 -1 0 0 0 0];


internalField   nonuniform List<vector> 
78750
(
(-0.0021959 0.0182169 -0.00319771)
(-0.00691161 0.0198045 -0.00534038)
(-0.0111894 0.0158513 -0.0052378)
(-0.013628 0.0139463 -0.00461079)
(-0.0159209 0.0126133 -0.00361142)
(-0.0175269 0.0118357 -0.00298281)
(-0.0190705 0.0113024 -0.00251401)
(-0.0204827 0.0108627 -0.00215498)
(-0.0218479 0.0104286 -0.00187714)
(-0.0231716 0.00995781 -0.00164808)
(-0.0244688 0.00942937 -0.00144959)
(-0.0257408 0.00883084 -0.0012746)
(-0.0269874 0.00815129 -0.00112588)
(-0.0282017 0.00737645 -0.00100932)
(-0.0293779 0.00648594 -0.000927614)
(-0.0305095 0.00545946 -0.000873661)
(-0.0315854 0.00428543 -0.000833715)
(-0.0325959 0.00296964 -0.000794154)
(-0.0335357 0.00154009 -0.000745203)
(-0.034417 4.61015e-05 -0.000678847)
(-0.0352622 -0.00145383 -0.000576365)
(-0.0361084 -0.00294303 -0.000410173)
(-0.0369653 -0.00449795 -0.000144146)
(-0.0377657 -0.00628529 0.000239603)
(-0.0384721 -0.00845759 0.000743773)
(-0.0387838 -0.0110951 0.00137325)
(-0.0383631 -0.0133807 0.00213088)
(-0.0375406 -0.0157599 0.00299514)
(-0.0344718 -0.020632 0.00392585)
(-0.0310518 -0.0251534 0.0039845)
(-0.0250739 -0.0295723 0.0040067)
(-0.0191437 -0.0301381 0.00346528)
(-0.0123202 -0.0288072 0.00264964)
(-0.00598027 -0.0237513 0.0013272)
(-0.00124771 -0.0115421 -0.000174725)
(-0.00029778 0.0393191 -0.00179357)
(-0.00240572 0.0471192 -0.00346705)
(-0.00453443 0.0357962 -0.00389379)
(-0.00567799 0.023995 -0.00371947)
(-0.00598551 0.0170176 -0.00340966)
(-0.00567391 0.0136451 -0.0027852)
(-0.00512919 0.0118591 -0.00224083)
(-0.00447782 0.0108305 -0.00172536)
(-0.00382787 0.0102136 -0.00120837)
(-0.00323592 0.00981979 -0.000679695)
(-0.00273055 0.00954783 -0.000133681)
(-0.00232632 0.00932937 0.000434265)
(-0.00202529 0.00912178 0.00103342)
(-0.00181207 0.00889799 0.00167908)
(-0.00171939 0.00868456 0.00235545)
(-0.00175743 0.00845974 0.00316986)
(-0.00193716 0.00824463 0.00410692)
(-0.002295 0.00809561 0.00522188)
(-0.00285583 0.00808612 0.0065514)
(-0.00365216 0.00837541 0.00811986)
(-0.00472451 0.00911314 0.00987018)
(-0.00606544 0.0102028 0.0115958)
(-0.00764315 0.0111465 0.0130354)
(-0.00945434 0.0111262 0.0140727)
(-0.0111298 0.00948773 0.0147245)
(-0.0127451 0.00553366 0.0152858)
(-0.0139508 -0.00252698 0.0156404)
(-0.0142331 -0.0165024 0.0159143)
(-0.0137593 -0.0308186 0.0162847)
(-0.0121913 -0.0443744 0.0169971)
(-0.0108322 -0.0550078 0.0164574)
(-0.00852002 -0.0621182 0.0151921)
(-0.00622986 -0.0643733 0.0136006)
(-0.0032411 -0.0590242 0.0102311)
(-0.000550069 -0.0316666 0.00415846)
(3.10222e-05 0.0425849 -0.00178025)
(-0.000677128 0.055881 -0.00391307)
(-0.00194475 0.0453275 -0.00514997)
(-0.00315317 0.029325 -0.00587645)
(-0.00389144 0.0176683 -0.00611543)
(-0.0040581 0.0110001 -0.0063049)
(-0.00406256 0.00731633 -0.00623662)
(-0.00394707 0.00551284 -0.00598415)
(-0.00385216 0.004764 -0.00560112)
(-0.00382749 0.00454359 -0.0051341)
(-0.00388943 0.00452377 -0.00461819)
(-0.00403691 0.00451806 -0.00407804)
(-0.00426559 0.00443268 -0.00351189)
(-0.00457532 0.00421758 -0.00290551)
(-0.00497229 0.00386341 -0.00223949)
(-0.00540854 0.00361279 -0.00153876)
(-0.00601851 0.00340301 -0.000504702)
(-0.00671981 0.00322905 0.00065877)
(-0.00754904 0.00319345 0.00202433)
(-0.00848309 0.0033496 0.00356808)
(-0.00946608 0.00363318 0.00521611)
(-0.0104194 0.00381241 0.006859)
(-0.0111623 0.00352068 0.00839317)
(-0.0115511 0.00219643 0.00977154)
(-0.0113399 -0.00137661 0.0110726)
(-0.0101543 -0.00893596 0.0122439)
(-0.00838954 -0.0200109 0.0128675)
(-0.00660208 -0.0322774 0.0129211)
(-0.00510202 -0.0443557 0.0125494)
(-0.00392143 -0.0552469 0.0118623)
(-0.00293582 -0.0641385 0.0110862)
(-0.00207336 -0.0701108 0.0101941)
(-0.001248 -0.0722741 0.00888164)
(-0.000491592 -0.0669076 0.00669992)
(-7.02501e-06 -0.0373616 0.00304148)
(9.86452e-05 0.0441296 -0.00107306)
(-0.000245026 0.0638253 -0.00307334)
(-0.00112713 0.0562699 -0.00438082)
(-0.00208384 0.0401415 -0.00501361)
(-0.00282703 0.0260027 -0.00492029)
(-0.00330141 0.0171158 -0.00433175)
(-0.00359726 0.012836 -0.00342145)
(-0.00385606 0.0109477 -0.00248107)
(-0.00406481 0.0104743 -0.00177413)
(-0.00429431 0.0106496 -0.00105166)
(-0.00450814 0.0110388 -0.000409772)
(-0.0047417 0.0114328 0.000170064)
(-0.00503356 0.0117671 0.000698501)
(-0.00544072 0.0120517 0.00119826)
(-0.00602955 0.0123245 0.00169693)
(-0.00683806 0.0126408 0.00222995)
(-0.00787038 0.0130341 0.00284752)
(-0.00910291 0.013484 0.00357807)
(-0.0104742 0.0138685 0.00444175)
(-0.0118932 0.0139551 0.00543519)
(-0.0132124 0.0134047 0.00655162)
(-0.0139853 0.01194 0.00766046)
(-0.0144362 0.00771607 0.00928735)
(-0.0140703 0.00104651 0.0103912)
(-0.0125982 -0.0136005 0.011388)
(-0.0108415 -0.0278555 0.0113857)
(-0.00912289 -0.0409444 0.0107187)
(-0.00752204 -0.0526615 0.00968152)
(-0.00609439 -0.0629358 0.00848749)
(-0.00480907 -0.0714267 0.00731445)
(-0.00356637 -0.0776682 0.00625222)
(-0.00245166 -0.0809319 0.00523162)
(-0.00138345 -0.0807619 0.00397978)
(-0.000511949 -0.0719456 0.00270072)
(-7.33708e-06 -0.0386782 0.00143026)
(-1.24143e-06 0.0447617 -0.000482349)
(-0.000438585 0.0677647 -0.00192483)
(-0.00132441 0.0614628 -0.00275954)
(-0.00237224 0.0447395 -0.00255849)
(-0.00339632 0.0292338 -0.00130272)
(-0.00430961 0.0190558 0.000445032)
(-0.00505908 0.0134952 0.00207631)
(-0.00570063 0.0106586 0.00332527)
(-0.00619286 0.00959793 0.00413217)
(-0.00678575 0.00905874 0.00498704)
(-0.00739384 0.00889274 0.00556294)
(-0.00814622 0.00912507 0.00591427)
(-0.00907621 0.00988599 0.0061115)
(-0.0101897 0.0112709 0.00622225)
(-0.0114511 0.0131864 0.00631146)
(-0.0127883 0.0153364 0.00644936)
(-0.0141196 0.0172621 0.00672505)
(-0.0154265 0.0184564 0.00720777)
(-0.0162693 0.0185593 0.00780829)
(-0.016832 0.0169874 0.00881966)
(-0.0168697 0.0127244 0.00983239)
(-0.0160772 0.00480267 0.0102749)
(-0.0147946 -0.00393092 0.00977214)
(-0.0125798 -0.0198449 0.00812031)
(-0.0108253 -0.032125 0.00639447)
(-0.00939199 -0.0430044 0.00449466)
(-0.00817878 -0.0529496 0.002557)
(-0.00706655 -0.0621115 0.00075642)
(-0.00596458 -0.0703633 -0.00075399)
(-0.00484851 -0.0774031 -0.00185952)
(-0.003654 -0.0827497 -0.00251762)
(-0.00252041 -0.0855709 -0.00281621)
(-0.00139058 -0.0850082 -0.0027225)
(-0.000428882 -0.0753995 -0.00183215)
(6.18569e-05 -0.0401647 -0.00016822)
(7.14917e-05 0.0458995 -0.000131406)
(-0.000227702 0.0733488 -0.00109042)
(-0.00101601 0.0697499 -0.00154956)
(-0.00204017 0.054272 -0.000946921)
(-0.003108 0.038109 0.000728109)
(-0.00400422 0.026329 0.00282268)
(-0.0047825 0.0191739 0.00467975)
(-0.00560256 0.0155527 0.00602001)
(-0.00638994 0.0144851 0.00688876)
(-0.0074445 0.0147483 0.00771604)
(-0.00862407 0.0160998 0.00819589)
(-0.010054 0.0183851 0.00837821)
(-0.0116907 0.0211203 0.00834641)
(-0.0133859 0.0235086 0.00828059)
(-0.0149885 0.0250767 0.00835648)
(-0.0166128 0.0256143 0.00861163)
(-0.0177225 0.0250495 0.00893129)
(-0.0187522 0.0223798 0.00931598)
(-0.019152 0.0168978 0.00921549)
(-0.0189038 0.0087227 0.00831301)
(-0.0184497 0.00116871 0.00671358)
(-0.0173338 -0.0132244 0.00291211)
(-0.0160412 -0.0254512 0.000147894)
(-0.0149556 -0.0356741 -0.00183233)
(-0.0140155 -0.0452578 -0.00354941)
(-0.0130199 -0.0548152 -0.00495665)
(-0.011892 -0.0642264 -0.00592117)
(-0.0105664 -0.0730553 -0.00638659)
(-0.00905547 -0.0808362 -0.00640625)
(-0.00741748 -0.0872578 -0.00609202)
(-0.00562672 -0.0918874 -0.00551259)
(-0.00398601 -0.0939384 -0.00473907)
(-0.00230735 -0.0923679 -0.00351107)
(-0.000857535 -0.0804127 -0.001881)
(6.83774e-06 -0.0414654 -0.000192485)
(5.88489e-05 0.04576 -4.05674e-05)
(-0.000119752 0.0759505 -0.000598924)
(-0.000703482 0.0742174 -0.000770943)
(-0.00153108 0.0592802 2.55884e-05)
(-0.00246375 0.0419851 0.00185062)
(-0.00330992 0.0287105 0.0040259)
(-0.00422267 0.0209985 0.00583331)
(-0.00508109 0.0183753 0.00690657)
(-0.00613918 0.0179675 0.00782306)
(-0.00725737 0.0193007 0.00845262)
(-0.0084735 0.0217979 0.00880083)
(-0.00975408 0.0247063 0.00891817)
(-0.0109326 0.027116 0.00892454)
(-0.0120916 0.0286551 0.00889926)
(-0.0129782 0.0290721 0.00883203)
(-0.0137412 0.0282768 0.00860292)
(-0.0144046 0.0257216 0.00816231)
(-0.0146888 0.0207122 0.00686503)
(-0.0147012 0.0121905 0.00417103)
(-0.0146527 0.00411723 0.00140885)
(-0.0145341 -0.00438666 -0.00144038)
(-0.0143066 -0.0168174 -0.00482741)
(-0.014213 -0.027869 -0.0067366)
(-0.0140884 -0.0387398 -0.00764995)
(-0.0136841 -0.0498165 -0.00781654)
(-0.0130096 -0.0607968 -0.00753092)
(-0.0120685 -0.0713409 -0.00690675)
(-0.0108345 -0.081284 -0.00613878)
(-0.00941313 -0.0900536 -0.00537659)
(-0.00784039 -0.0972249 -0.00467329)
(-0.00608844 -0.102301 -0.00403044)
(-0.00444528 -0.104493 -0.00347775)
(-0.00270595 -0.10264 -0.00282205)
(-0.00115247 -0.0889559 -0.00191518)
(-7.97521e-05 -0.045232 -0.000474418)
(9.74336e-05 0.0453936 -0.000174826)
(6.64727e-05 0.078047 -0.000641227)
(-0.000326481 0.0785625 -0.00067574)
(-0.000974469 0.0652957 0.000173521)
(-0.00179826 0.0481974 0.00202899)
(-0.0026286 0.0345708 0.00423209)
(-0.00356613 0.0267547 0.00605796)
(-0.00436663 0.0241461 0.00714522)
(-0.00522287 0.0237727 0.00804373)
(-0.00608564 0.0250116 0.00866261)
(-0.00685654 0.0271239 0.00900834)
(-0.00758582 0.0292871 0.00911186)
(-0.00828005 0.0308838 0.0090038)
(-0.00882005 0.0314273 0.00870044)
(-0.00928988 0.0308534 0.00804632)
(-0.00981659 0.0288533 0.00704327)
(-0.00999372 0.0250579 0.00514146)
(-0.0101802 0.0190186 0.00234786)
(-0.0103664 0.0113964 -0.000733927)
(-0.0106209 0.00443171 -0.00308626)
(-0.0108288 -0.00632156 -0.00576113)
(-0.0109647 -0.0175375 -0.0071778)
(-0.0111523 -0.0290789 -0.00764953)
(-0.0111348 -0.0412452 -0.00773403)
(-0.0109904 -0.0539132 -0.00755318)
(-0.0104399 -0.0667445 -0.00721531)
(-0.00991988 -0.0788215 -0.00658621)
(-0.00897669 -0.0895988 -0.00623265)
(-0.00787213 -0.098901 -0.00602334)
(-0.006609 -0.106298 -0.0058893)
(-0.00520055 -0.111371 -0.00578413)
(-0.00385779 -0.113392 -0.00571977)
(-0.00245457 -0.110963 -0.0054954)
(-0.00116379 -0.0959486 -0.00445768)
(-0.000171781 -0.0488771 -0.00181146)
(0.000100346 0.0446172 -0.000422554)
(0.000166111 0.0791598 -0.000950752)
(-8.80625e-05 0.0814498 -0.000908494)
(-0.00064993 0.0694549 -3.87884e-05)
(-0.00145872 0.0522965 0.00178996)
(-0.00227401 0.037999 0.00396478)
(-0.00302554 0.0293481 0.00585019)
(-0.00361357 0.0257218 0.00713317)
(-0.00404001 0.0248394 0.00796036)
(-0.00443131 0.025434 0.00863235)
(-0.00476896 0.0269667 0.00902094)
(-0.00497412 0.0287586 0.00909517)
(-0.00515763 0.030163 0.00886136)
(-0.00528649 0.0306586 0.00830381)
(-0.00543035 0.0300725 0.00721037)
(-0.00547551 0.0281409 0.0055858)
(-0.00559387 0.0247162 0.00333803)
(-0.00571943 0.0194635 0.000447209)
(-0.00594672 0.0127757 -0.00237747)
(-0.00615624 0.00594224 -0.00444697)
(-0.00641724 -0.00403142 -0.00642643)
(-0.00679382 -0.0154911 -0.00767035)
(-0.00706495 -0.0278261 -0.00833782)
(-0.00722638 -0.0406984 -0.00869949)
(-0.00716363 -0.0538545 -0.00891949)
(-0.00717016 -0.0671419 -0.00902303)
(-0.00672515 -0.0802985 -0.00935095)
(-0.00622764 -0.0924048 -0.00944447)
(-0.00546836 -0.102735 -0.0093537)
(-0.00457468 -0.110809 -0.00908488)
(-0.00358626 -0.116271 -0.00863088)
(-0.00265347 -0.118518 -0.007978)
(-0.0017285 -0.116234 -0.00682446)
(-0.000850023 -0.101243 -0.0049145)
(-0.000154479 -0.0522005 -0.00208485)
(0.000155607 0.043594 -0.000745633)
(0.00035602 0.079622 -0.00163015)
(0.000263137 0.0842164 -0.00170317)
(-0.000188652 0.0747169 -0.00103472)
(-0.000988142 0.0581804 0.000623643)
(-0.00183538 0.0428625 0.00280553)
(-0.00254254 0.0322918 0.00493665)
(-0.00300239 0.0268674 0.00655471)
(-0.00331482 0.0248475 0.00762364)
(-0.003551 0.0245458 0.00839244)
(-0.00370318 0.0253182 0.00883238)
(-0.00381103 0.0265585 0.00892898)
(-0.00388529 0.0276704 0.00867302)
(-0.00395603 0.0281377 0.0080629)
(-0.00405402 0.0277409 0.00695339)
(-0.00417538 0.0262789 0.00541751)
(-0.00435592 0.0235704 0.00335198)
(-0.00458458 0.0193067 0.000814831)
(-0.00489572 0.0134747 -0.00173552)
(-0.00515867 0.00620021 -0.0039081)
(-0.00544574 -0.00172541 -0.00551143)
(-0.0058451 -0.0130161 -0.00705773)
(-0.00612531 -0.0256825 -0.00814653)
(-0.00628847 -0.0391176 -0.0087772)
(-0.00623979 -0.0530845 -0.00905854)
(-0.00599369 -0.0671436 -0.00911248)
(-0.00546825 -0.0809287 -0.0089883)
(-0.00482393 -0.0936804 -0.008516)
(-0.00401967 -0.104605 -0.00782057)
(-0.00316072 -0.113075 -0.00700232)
(-0.00230129 -0.118693 -0.00607381)
(-0.00155229 -0.121053 -0.00499479)
(-0.000887829 -0.118891 -0.00359956)
(-0.000326474 -0.104005 -0.00210924)
(-2.21891e-05 -0.0538922 -0.000895585)
(0.000155601 0.04244 -0.000956898)
(0.000394828 0.079596 -0.00214524)
(0.000412731 0.0859564 -0.00252414)
(0.000189708 0.0787206 -0.00202531)
(-0.000405639 0.0632675 -0.000421546)
(-0.00117182 0.0471988 0.00189397)
(-0.0018546 0.0347586 0.0042771)
(-0.00234179 0.0273599 0.00616448)
(-0.002685 0.0240836 0.00739197)
(-0.00299225 0.023064 0.00816775)
(-0.0033054 0.0233658 0.00867214)
(-0.0035951 0.0244398 0.00881873)
(-0.0039 0.0256805 0.0085644)
(-0.00421563 0.0265179 0.00788694)
(-0.00458355 0.026701 0.0067418)
(-0.00497208 0.0258975 0.00522702)
(-0.0053763 0.0238567 0.003343)
(-0.00585987 0.0202648 0.000957668)
(-0.00637076 0.0148642 -0.00161136)
(-0.00685022 0.00773707 -0.00390585)
(-0.00726552 0.000175557 -0.00551173)
(-0.00768391 -0.0113028 -0.00701872)
(-0.00791405 -0.0244489 -0.0078271)
(-0.00794693 -0.0387322 -0.00796248)
(-0.00785082 -0.0539191 -0.00749692)
(-0.007403 -0.0693621 -0.006657)
(-0.00675056 -0.084441 -0.00553008)
(-0.00587424 -0.0981148 -0.00440682)
(-0.00487184 -0.109502 -0.00344344)
(-0.00382293 -0.118043 -0.00266488)
(-0.00277343 -0.123489 -0.00201203)
(-0.00185619 -0.125557 -0.00142175)
(-0.00102967 -0.122885 -0.000830604)
(-0.000343813 -0.106777 -0.000454699)
(1.2131e-05 -0.0546414 -0.00033051)
(0.000119769 0.0413515 -0.00092276)
(0.000388438 0.0790311 -0.00217264)
(0.000510392 0.0869376 -0.00251292)
(0.000462825 0.0814482 -0.00196635)
(0.000134539 0.067412 -0.000373868)
(-0.000411529 0.0512554 0.00189662)
(-0.000981639 0.0376201 0.00418014)
(-0.00150957 0.0287075 0.00595614)
(-0.00199744 0.0245858 0.00700997)
(-0.00243232 0.0233299 0.00748513)
(-0.00292924 0.0235136 0.00773559)
(-0.0034041 0.0245914 0.00771502)
(-0.00389267 0.0259381 0.00741667)
(-0.00441783 0.0269847 0.00686246)
(-0.00493745 0.0274101 0.00587861)
(-0.00549778 0.0270169 0.00430953)
(-0.0060493 0.0255765 0.00229625)
(-0.00660582 0.0226251 -0.000102988)
(-0.00717943 0.0176598 -0.00267901)
(-0.00773811 0.0106399 -0.00490135)
(-0.00818108 0.00300107 -0.00630732)
(-0.00861904 -0.00909707 -0.0074692)
(-0.00888808 -0.0231795 -0.00783838)
(-0.00899891 -0.0386141 -0.00753668)
(-0.0089077 -0.0551455 -0.00670842)
(-0.00862625 -0.0724306 -0.0054118)
(-0.00804128 -0.0890204 -0.00407031)
(-0.00720075 -0.103848 -0.00295786)
(-0.00614467 -0.115982 -0.0020864)
(-0.00498194 -0.124837 -0.00143846)
(-0.003769 -0.130305 -0.000942066)
(-0.00269062 -0.132209 -0.000522514)
(-0.00166607 -0.129125 -9.93621e-05)
(-0.000720497 -0.111693 6.35395e-05)
(-4.36233e-05 -0.0564511 -0.000247327)
(6.63624e-05 0.0403477 -0.000665937)
(0.000308071 0.0782428 -0.00150965)
(0.00048278 0.0870399 -0.00154042)
(0.000495103 0.082536 -0.00103363)
(0.00035785 0.0694023 0.000332404)
(2.82974e-05 0.0534349 0.00214916)
(-0.000400508 0.039514 0.0038165)
(-0.000909021 0.0301842 0.00500265)
(-0.00141597 0.0257595 0.00569205)
(-0.00190517 0.0241944 0.00612064)
(-0.00241729 0.0242307 0.00630849)
(-0.00292208 0.0252732 0.00620609)
(-0.0034311 0.0267147 0.00574855)
(-0.00395642 0.0280507 0.00483828)
(-0.00446197 0.0287525 0.00367082)
(-0.00499631 0.0286553 0.00202996)
(-0.00548274 0.0274522 0.000160115)
(-0.00594414 0.0248474 -0.0019626)
(-0.00641137 0.0202516 -0.00425797)
(-0.00690119 0.0134735 -0.00626778)
(-0.00723758 0.00581781 -0.00752839)
(-0.00760837 -0.00623917 -0.00846625)
(-0.00801509 -0.020627 -0.00860593)
(-0.0083088 -0.0367793 -0.00800733)
(-0.00844437 -0.0544412 -0.0067479)
(-0.00841775 -0.0730566 -0.00493255)
(-0.00806544 -0.0916043 -0.00278472)
(-0.00752311 -0.108462 -0.0012574)
(-0.0065957 -0.122251 3.57359e-05)
(-0.00547947 -0.132111 0.000988796)
(-0.00426777 -0.138081 0.0017085)
(-0.00315855 -0.140249 0.00235918)
(-0.00205429 -0.137342 0.00298179)
(-0.000961422 -0.119168 0.0027559)
(-7.05046e-05 -0.0599218 0.000742161)
(5.9183e-05 0.0392391 -0.000461164)
(0.000331754 0.0771831 -0.00101473)
(0.0005245 0.0867756 -0.0010217)
(0.000587158 0.0829373 -0.000383486)
(0.000499523 0.0705652 0.000717012)
(0.00023346 0.0550151 0.00200534)
(-0.000144574 0.0411776 0.0031047)
(-0.000614992 0.0316799 0.00386354)
(-0.00107856 0.0269863 0.00431174)
(-0.00151728 0.0252689 0.00456615)
(-0.00195811 0.0251944 0.00464243)
(-0.00240598 0.0261864 0.00446119)
(-0.00283823 0.0276424 0.00394098)
(-0.0032654 0.0290167 0.00303427)
(-0.00367155 0.0298326 0.00179419)
(-0.00404449 0.0298717 0.000243298)
(-0.00437339 0.0288369 -0.00162299)
(-0.00464095 0.0265048 -0.00357753)
(-0.00489244 0.0224633 -0.00558257)
(-0.00514518 0.0162097 -0.00737764)
(-0.00532408 0.00759093 -0.00860826)
(-0.00549476 -0.00217888 -0.00905205)
(-0.00581714 -0.0164677 -0.00870701)
(-0.006115 -0.0331104 -0.00744738)
(-0.00637174 -0.0516958 -0.00533889)
(-0.00652724 -0.0717197 -0.00259373)
(-0.00674349 -0.092357 0.000331587)
(-0.00639878 -0.112081 0.00375248)
(-0.00620611 -0.128419 0.00577057)
(-0.00534404 -0.140051 0.00700898)
(-0.00434364 -0.147093 0.00764862)
(-0.00332516 -0.149891 0.00793806)
(-0.00223858 -0.147346 0.00780932)
(-0.00115978 -0.128373 0.00618179)
(-0.000151308 -0.0644604 0.0020221)
(8.04422e-05 0.037863 -0.000296284)
(0.000395721 0.0756488 -0.00068819)
(0.000627101 0.0860202 -0.000653676)
(0.000741287 0.0830223 -0.000239499)
(0.000669777 0.0716653 0.000573673)
(0.000399867 0.0566363 0.0014389)
(8.70421e-06 0.0428796 0.00211265)
(-0.000438167 0.0331608 0.00253954)
(-0.000849956 0.0281011 0.00277029)
(-0.00122917 0.0260792 0.00287419)
(-0.00158394 0.0258227 0.00281835)
(-0.0019331 0.0266647 0.00252168)
(-0.00224962 0.0280214 0.00192054)
(-0.00253433 0.0293398 0.00098397)
(-0.00278187 0.0301544 -0.00028375)
(-0.00296322 0.0301561 -0.00170308)
(-0.00307587 0.0291065 -0.00333039)
(-0.00310559 0.026835 -0.00494428)
(-0.00306221 0.0229948 -0.00650731)
(-0.00295589 0.0170997 -0.00786165)
(-0.00281461 0.00908297 -0.0086908)
(-0.00264803 -0.000419658 -0.00876191)
(-0.00245539 -0.0135578 -0.00791982)
(-0.00235007 -0.0296045 -0.00623492)
(-0.00226186 -0.0481909 -0.00369032)
(-0.00235986 -0.0688033 -0.00049491)
(-0.0022248 -0.090628 0.00306479)
(-0.00258602 -0.112387 0.00599713)
(-0.00247944 -0.132177 0.00884163)
(-0.00241233 -0.14728 0.0105808)
(-0.00200397 -0.15674 0.0113237)
(-0.00173521 -0.160732 0.011195)
(-0.00132648 -0.15852 0.0103442)
(-0.000881335 -0.138883 0.00798479)
(-0.000186983 -0.0705745 0.00294128)
(8.98639e-05 0.0363879 -0.000137101)
(0.000400305 0.0737028 -0.000560424)
(0.000628169 0.0848958 -0.000648024)
(0.000769739 0.0829388 -0.000415962)
(0.000681997 0.0727912 7.01091e-05)
(0.000360397 0.058595 0.000630907)
(-9.2408e-05 0.0450382 0.00111016)
(-0.000575969 0.0349844 0.00143654)
(-0.00101542 0.0293534 0.00160648)
(-0.00143007 0.0269685 0.00165245)
(-0.00182632 0.0264365 0.00154322)
(-0.00222413 0.0270181 0.00120246)
(-0.00256798 0.0281628 0.000586127)
(-0.00289132 0.0293046 -0.000307753)
(-0.00312246 0.0298966 -0.00133985)
(-0.00327633 0.0296687 -0.00260807)
(-0.00334491 0.0284164 -0.00392683)
(-0.0032501 0.0259829 -0.00522063)
(-0.00305626 0.0219526 -0.00638438)
(-0.00266917 0.0159643 -0.00724913)
(-0.00213755 0.00793807 -0.00756161)
(-0.00144766 -0.0018171 -0.00715391)
(-0.00055598 -0.01474 -0.00592584)
(0.000389823 -0.0305187 -0.00385537)
(0.00122719 -0.0487705 -0.00102758)
(0.00202834 -0.0690574 0.00232088)
(0.00245218 -0.0906224 0.00572813)
(0.00273081 -0.112248 0.00897261)
(0.00265183 -0.132417 0.0115019)
(0.00213851 -0.148731 0.0126835)
(0.00141392 -0.158908 0.0126354)
(0.000897924 -0.163502 0.0121396)
(0.000379808 -0.161433 0.011074)
(-8.11007e-05 -0.142331 0.00872816)
(-0.000119897 -0.0746845 0.00387887)
(7.27086e-05 0.0352846 9.00893e-05)
(0.000220759 0.0718884 -0.000393716)
(0.000341916 0.0838703 -0.000608105)
(0.000313651 0.0829832 -0.000356919)
(0.000241711 0.0743097 -6.97532e-05)
(-0.000218431 0.0610896 0.000424382)
(-0.000818681 0.0477883 0.000924749)
(-0.00148244 0.037487 0.00132642)
(-0.00215287 0.0314043 0.00154167)
(-0.00282345 0.028793 0.00157456)
(-0.00349992 0.0281143 0.00144606)
(-0.00424465 0.0284775 0.00106655)
(-0.0049471 0.0293604 0.000420434)
(-0.00558598 0.0301626 -0.000459867)
(-0.00613141 0.0303826 -0.00137503)
(-0.00660552 0.029784 -0.00240854)
(-0.00695684 0.0280961 -0.00333441)
(-0.00716336 0.0248295 -0.00410036)
(-0.00703662 0.0196321 -0.00463958)
(-0.0065154 0.0122424 -0.00470675)
(-0.00579402 0.00383782 -0.00401837)
(-0.00463974 -0.00789284 -0.00212086)
(-0.00291056 -0.0225578 0.000705136)
(-0.00094301 -0.0395509 0.00407813)
(0.00109468 -0.0580841 0.00758989)
(0.00298559 -0.077617 0.0108658)
(0.00446136 -0.0974594 0.0135394)
(0.00538879 -0.116722 0.0152944)
(0.0055917 -0.134217 0.015921)
(0.00524245 -0.148582 0.0154754)
(0.00440002 -0.15856 0.014026)
(0.00345082 -0.163081 0.012619)
(0.00242982 -0.161136 0.0113113)
(0.00132422 -0.142132 0.008915)
(0.000199946 -0.0747186 0.0044499)
(5.94995e-05 0.035336 0.000486432)
(-7.91357e-06 0.0718074 0.000400211)
(-0.000192 0.0840617 0.000116364)
(-0.000172831 0.0835576 -0.000138335)
(-0.000535499 0.076281 2.94125e-05)
(-0.00109011 0.0643869 0.000512514)
(-0.00190747 0.0518971 0.00119803)
(-0.00286656 0.0419353 0.0018297)
(-0.00393063 0.0359013 0.00217449)
(-0.00516008 0.033204 0.00218852)
(-0.00638822 0.03267 0.0019981)
(-0.00782383 0.0331547 0.00152765)
(-0.00917169 0.0339579 0.000806059)
(-0.010497 0.0344076 -6.23275e-05)
(-0.0116012 0.0342034 -0.000749598)
(-0.012785 0.0329231 -0.00147942)
(-0.0135437 0.0301242 -0.00195981)
(-0.0140573 0.0254241 -0.00190001)
(-0.0141062 0.0181991 -0.000999108)
(-0.0136733 0.00824389 0.000893212)
(-0.0127931 -0.00245904 0.00347512)
(-0.0107093 -0.0210149 0.00775612)
(-0.00816637 -0.0401982 0.0110766)
(-0.0054194 -0.0594867 0.0135008)
(-0.00267044 -0.0787676 0.0150595)
(-0.000233727 -0.0974045 0.0157243)
(0.00180542 -0.114564 0.0156065)
(0.00333272 -0.12957 0.0149208)
(0.00420738 -0.142072 0.0138908)
(0.00442937 -0.151815 0.0126926)
(0.00411441 -0.158365 0.0113676)
(0.0034668 -0.160864 0.00949455)
(0.00270344 -0.156607 0.00729485)
(0.00166889 -0.134941 0.00514233)
(0.000316377 -0.0693234 0.00325525)
(1.94289e-05 0.0361933 0.000533784)
(-0.000234015 0.0723128 0.000531567)
(-0.000535274 0.0847309 0.000335907)
(-0.000821034 0.0853623 0.000442714)
(-0.00125769 0.0792888 0.00082612)
(-0.00198666 0.0687102 0.00152659)
(-0.00301428 0.0573698 0.00238149)
(-0.00429988 0.0485344 0.00306716)
(-0.00591687 0.0435379 0.00331549)
(-0.00757168 0.0420181 0.003168)
(-0.00961159 0.0420493 0.00266277)
(-0.0115544 0.0428032 0.00187967)
(-0.0135572 0.0433056 0.000972731)
(-0.0152051 0.0432601 0.000332304)
(-0.0170524 0.0422947 -0.000254827)
(-0.0184738 0.0398423 -0.000379266)
(-0.0196473 0.0352695 0.000247322)
(-0.0203619 0.0273548 0.0019222)
(-0.0202777 0.0156852 0.00447143)
(-0.0198309 0.00363154 0.00681641)
(-0.0185895 -0.021034 0.00976739)
(-0.0164776 -0.0439281 0.0102689)
(-0.0142166 -0.0646763 0.00946789)
(-0.0120159 -0.0840978 0.00806085)
(-0.00985388 -0.10219 0.0067032)
(-0.00750168 -0.118354 0.00575454)
(-0.00546402 -0.132599 0.00448166)
(-0.00366558 -0.144141 0.00364889)
(-0.00223538 -0.152929 0.00313943)
(-0.00112151 -0.158975 0.00284415)
(-0.000339353 -0.16203 0.00276026)
(0.000319534 -0.161495 0.00294157)
(0.000770788 -0.154635 0.00240867)
(0.000918121 -0.129793 0.00126469)
(0.000380045 -0.0626586 0.000493133)
(0.000109575 0.0377367 0.000393392)
(-9.94421e-05 0.0748081 0.000891474)
(-0.000572221 0.0873041 0.000971129)
(-0.000970081 0.0880426 0.00115634)
(-0.00148245 0.0827769 0.00164818)
(-0.00225583 0.0736453 0.00236411)
(-0.00337134 0.064216 0.0030378)
(-0.00482734 0.0574745 0.0033363)
(-0.00670861 0.0542109 0.00315087)
(-0.00854452 0.0537245 0.00266069)
(-0.0106969 0.054408 0.0017452)
(-0.0127979 0.0548893 0.000715178)
(-0.0146561 0.0548772 2.66771e-05)
(-0.0165617 0.0542941 -0.000358069)
(-0.0182848 0.0523056 -0.000246297)
(-0.0197332 0.0481666 0.000574781)
(-0.0209959 0.0403221 0.00214353)
(-0.0215029 0.0268043 0.00386549)
(-0.0217407 0.00871295 0.00478857)
(-0.0215849 -0.00780232 0.00384274)
(-0.0206348 -0.0362341 0.000570208)
(-0.0197239 -0.0573932 -0.00240976)
(-0.0189172 -0.0763934 -0.00524736)
(-0.0180639 -0.0951739 -0.0078505)
(-0.0172164 -0.113522 -0.00997309)
(-0.0163478 -0.13066 -0.0109362)
(-0.0151822 -0.145073 -0.0101597)
(-0.0138827 -0.156658 -0.0087362)
(-0.011985 -0.164379 -0.0071502)
(-0.00987104 -0.169577 -0.00600043)
(-0.00774696 -0.171502 -0.00552687)
(-0.00538218 -0.169999 -0.00539215)
(-0.00308259 -0.160485 -0.00496079)
(-0.000966202 -0.130789 -0.0034982)
(5.16246e-05 -0.0611697 -0.00139425)
(0.000193102 0.0374515 -0.000310776)
(0.000514483 0.0759809 1.02122e-05)
(0.000588246 0.0897685 0.000536131)
(0.000341968 0.0907931 0.00121528)
(0.000110225 0.0862179 0.00155706)
(-0.000427991 0.0787062 0.00187165)
(-0.00133104 0.0714272 0.0021249)
(-0.00261983 0.0667948 0.00201054)
(-0.00402393 0.0651943 0.00150975)
(-0.00560675 0.0652149 0.000629289)
(-0.007268 0.0657603 -0.000394974)
(-0.00871945 0.0660537 -0.00120344)
(-0.0102449 0.0657255 -0.00183433)
(-0.0116349 0.0642616 -0.00206107)
(-0.0128713 0.0611864 -0.0018652)
(-0.013981 0.0552537 -0.0013885)
(-0.0149903 0.0439719 -0.00106827)
(-0.0158318 0.02631 -0.00176222)
(-0.0164663 0.0107564 -0.00340123)
(-0.0169592 -0.00947014 -0.00683533)
(-0.0176424 -0.0335181 -0.0111093)
(-0.0185919 -0.0544001 -0.0138876)
(-0.0193791 -0.0737949 -0.0155397)
(-0.0200056 -0.0931622 -0.0163977)
(-0.0204203 -0.112216 -0.0162895)
(-0.0207559 -0.130484 -0.0154513)
(-0.020751 -0.14779 -0.0138303)
(-0.0201132 -0.163565 -0.0115509)
(-0.0192183 -0.177678 -0.00889066)
(-0.016943 -0.186378 -0.00603484)
(-0.014194 -0.189147 -0.00462657)
(-0.0105527 -0.189262 -0.00307409)
(-0.0068748 -0.179618 -0.00213583)
(-0.00302811 -0.145415 -0.00272195)
(-0.000173945 -0.0645768 -0.00324782)
(0.000331997 0.0350464 -0.000944457)
(0.0012717 0.0740326 -0.000660693)
(0.00176608 0.0886565 -0.000272322)
(0.00245648 0.0907431 -0.000252336)
(0.00263535 0.0880348 0.000124126)
(0.00260663 0.0823678 0.000681745)
(0.00210224 0.0767658 0.000823982)
(0.00146318 0.0735173 0.000282916)
(0.000707209 0.0724764 -0.000561485)
(-5.70026e-05 0.0726956 -0.00165321)
(-0.000804328 0.0731868 -0.00282053)
(-0.00145275 0.0732312 -0.00383867)
(-0.00202289 0.0724341 -0.00466849)
(-0.00251397 0.0704664 -0.00524095)
(-0.00290698 0.0669748 -0.00561721)
(-0.00323389 0.0610711 -0.00609507)
(-0.00360696 0.0506136 -0.00723295)
(-0.00465863 0.0347603 -0.00951512)
(-0.00564895 0.0170748 -0.0135155)
(-0.00634207 0.00108957 -0.0177416)
(-0.00747774 -0.0191163 -0.0224024)
(-0.00888004 -0.0396543 -0.0256962)
(-0.0108199 -0.0609831 -0.0274815)
(-0.0123322 -0.0816744 -0.0279837)
(-0.0139114 -0.102012 -0.0269365)
(-0.0153735 -0.12225 -0.0243462)
(-0.0166689 -0.142382 -0.0202862)
(-0.0176438 -0.162314 -0.0149288)
(-0.0179156 -0.181294 -0.00888354)
(-0.0174141 -0.198299 -0.00265543)
(-0.0153118 -0.212381 0.00336357)
(-0.0132474 -0.216308 0.00656851)
(-0.00997153 -0.209218 0.00872873)
(-0.00593259 -0.172254 0.00685)
(-0.000994993 -0.0767552 -0.000319151)
(0.000332994 0.0288575 -0.00156606)
(0.00208972 0.0664111 -0.00198949)
(0.00389085 0.0836125 -0.00153692)
(0.00500781 0.0879225 -0.00109804)
(0.00580632 0.0861652 -0.00110841)
(0.0066105 0.0814312 -0.00162542)
(0.00712994 0.0773428 -0.00230569)
(0.00735889 0.075045 -0.00295838)
(0.00757387 0.0742399 -0.00387809)
(0.00785073 0.0742512 -0.004933)
(0.00821338 0.0744691 -0.0062993)
(0.00860758 0.07429 -0.00747737)
(0.00918026 0.0732391 -0.00858363)
(0.00983753 0.0710916 -0.00955495)
(0.0105403 0.0677098 -0.0104028)
(0.0113168 0.0626878 -0.0113213)
(0.0121758 0.055128 -0.0126551)
(0.0124785 0.0441682 -0.0147613)
(0.0128546 0.0294562 -0.0181395)
(0.0126946 0.0121463 -0.0223191)
(0.0126188 -0.00272834 -0.0259426)
(0.011996 -0.0196397 -0.0297801)
(0.0111089 -0.0385918 -0.0338772)
(0.00959028 -0.0585502 -0.0362028)
(0.00798927 -0.0789393 -0.0366402)
(0.00615093 -0.0997301 -0.0350357)
(0.00398921 -0.121464 -0.0310709)
(0.00136528 -0.144942 -0.0243322)
(-0.00153382 -0.170328 -0.014739)
(-0.00429321 -0.196212 -0.00349879)
(-0.00639869 -0.217497 0.00621805)
(-0.00720162 -0.231274 0.0126947)
(-0.00642093 -0.233917 0.0172991)
(-0.00521516 -0.211661 0.0175468)
(-0.00151391 -0.109541 0.00600369)
(0.000135097 0.0216067 -0.00123499)
(0.00173489 0.0545978 -0.00242314)
(0.00379338 0.0732982 -0.00250595)
(0.00547101 0.0799483 -0.00234387)
(0.00686364 0.0801642 -0.00229934)
(0.0078341 0.0781241 -0.00243145)
(0.00860007 0.0748406 -0.00288716)
(0.0093146 0.0723409 -0.00368147)
(0.0100513 0.0711458 -0.00475083)
(0.0108589 0.0708818 -0.00603994)
(0.0117769 0.0707866 -0.00733585)
(0.0128032 0.0701646 -0.00854176)
(0.014044 0.0685589 -0.0098356)
(0.015362 0.0660669 -0.0110067)
(0.0168328 0.0623814 -0.0120853)
(0.0184292 0.0571363 -0.0131612)
(0.0200108 0.0498252 -0.014409)
(0.0217033 0.0399333 -0.0159107)
(0.0230055 0.0289822 -0.0177422)