/*--------------------------------*- C++ -*----------------------------------*\
| =========                 |                                                 |
| \\      /  F ield         | OpenFOAM: The Open Source CFD Toolbox           |
|  \\    /   O peration     | Version:  v1906                                 |
|   \\  /    A nd           | Web:      www.OpenFOAM.com                      |
|    \\/     M anipulation  |                                                 |
\*---------------------------------------------------------------------------*/
FoamFile
{
    version     2.0;
    format      ascii;
    class       volScalarField;
    location    "900";
    object      alphat;
}
// * * * * * * * * * * * * * * * * * * * * * * * * * * * * * * * * * * * * * //

dimensions      [1 -1 -1 0 0 0 0];


internalField   nonuniform List<scalar> 
78750
(
6.92355e-08
2.68682e-06
3.61206e-06
4.12721e-06
4.25629e-06
4.3796e-06
4.50526e-06
4.64365e-06
4.79699e-06
4.95547e-06
5.1165e-06
5.28073e-06
5.43929e-06
5.59213e-06
5.7402e-06
5.88355e-06
6.02231e-06
6.15561e-06
6.28254e-06
6.40164e-06
6.51038e-06
6.60549e-06
6.68409e-06
6.74477e-06
6.78789e-06
6.79729e-06
6.79742e-06
6.45376e-06
5.82024e-06
4.91498e-06
4.17148e-06
3.38759e-06
2.63582e-06
1.64329e-06
2.91091e-08
1.17303e-07
4.11531e-06
3.90185e-06
4.47113e-06
6.53521e-06
9.68031e-06
1.31902e-05
1.30649e-05
1.28818e-05
1.26394e-05
1.23456e-05
1.20215e-05
1.17072e-05
1.14319e-05
1.12369e-05
1.10677e-05
9.91224e-06
8.82006e-06
7.80096e-06
7.35888e-06
7.91026e-06
9.84481e-06
1.39551e-05
1.9599e-05
2.19498e-05
1.44999e-05
1.04813e-05
1.02904e-05
1.13422e-05
1.18149e-05
1.18609e-05
1.30121e-05
1.09389e-05
3.72386e-06
8.52926e-08
1.348e-07
4.11263e-06
3.5465e-06
3.09143e-06
3.75659e-06
5.00093e-06
6.25443e-06
7.23409e-06
8.43323e-06
9.56318e-06
9.57372e-06
9.20964e-06
8.88674e-06
8.61282e-06
8.4024e-06
8.28534e-06
8.3039e-06
7.95155e-06
6.52644e-06
6.63331e-06
8.17885e-06
1.22231e-05
1.87261e-05
2.11189e-05
2.32481e-05
1.37401e-05
9.56031e-06
8.56608e-06
8.82411e-06
1.01089e-05
1.20545e-05
1.46348e-05
1.52537e-05
4.30415e-06
9.59702e-08
1.46965e-07
3.3524e-06
4.02205e-06
2.69601e-06
2.75707e-06
3.25321e-06
4.05467e-06
5.17726e-06
6.537e-06
8.01764e-06
8.08826e-06
7.70425e-06
7.39615e-06
7.18273e-06
7.10333e-06
7.17455e-06
7.08493e-06
5.84733e-06
5.16094e-06
5.51446e-06
7.84293e-06
1.36911e-05
1.78776e-05
1.42735e-05
1.28796e-05
1.10922e-05
9.76776e-06
9.851e-06
9.5472e-06
8.96616e-06
1.08215e-05
1.75208e-05
1.4062e-05
3.91842e-06
9.84291e-08
1.47418e-07
2.96131e-06
4.59322e-06
2.57957e-06
2.33565e-06
2.557e-06
3.01318e-06
3.70644e-06
4.75069e-06
6.17067e-06
6.6697e-06
6.34007e-06
6.13823e-06
6.06427e-06
6.09993e-06
5.63694e-06
4.40796e-06
3.77822e-06
3.94184e-06
5.52427e-06
1.06388e-05
1.78181e-05
1.79312e-05
1.40083e-05
1.30005e-05
1.26917e-05
1.13189e-05
9.8562e-06
8.64128e-06
7.78961e-06
7.82474e-06
1.04011e-05
1.95429e-05
3.99258e-06
1.42739e-07
1.47674e-07
2.69627e-06
5.43199e-06
2.60343e-06
2.13903e-06
2.19926e-06
2.48684e-06
3.02141e-06
3.95788e-06
5.63064e-06
6.35523e-06
6.12358e-06
6.03979e-06
6.07697e-06
6.04269e-06
4.83709e-06
3.99362e-06
3.59843e-06
4.00096e-06
6.31143e-06
1.37544e-05
1.73708e-05
1.60677e-05
1.40337e-05
1.33518e-05
1.22863e-05
1.32824e-05
1.2471e-05
8.91216e-06
6.48678e-06
5.60794e-06
7.29764e-06
1.81806e-05
5.49559e-06
2.07445e-07
1.42883e-07
2.49884e-06
6.45792e-06
2.7324e-06
2.02322e-06
1.94402e-06
2.07953e-06
2.43065e-06
3.17882e-06
4.72475e-06
6.33309e-06
6.35762e-06
6.49925e-06
6.70201e-06
6.81482e-06
5.02788e-06
3.8489e-06
3.42172e-06
4.03342e-06
6.79905e-06
1.29591e-05
1.48257e-05
1.17669e-05
1.05983e-05
9.84376e-06
9.05053e-06
9.11077e-06
1.06284e-05
8.94648e-06
6.29994e-06
5.39716e-06
6.15293e-06
1.17097e-05
6.68902e-06
2.18705e-07
1.37142e-07
2.3288e-06
7.63955e-06
3.06614e-06
2.06983e-06
1.85653e-06
1.89748e-06
2.08252e-06
2.52089e-06
3.61139e-06
5.78086e-06
5.83288e-06
5.95166e-06
6.18373e-06
6.53193e-06
6.23128e-06
4.72145e-06
4.2451e-06
5.05294e-06
8.21064e-06
1.40304e-05
1.53871e-05
1.13932e-05
9.75105e-06
9.24319e-06
9.34363e-06
9.97e-06
1.01634e-05
9.32255e-06
8.69651e-06
8.74993e-06
1.03847e-05
1.7854e-05
6.83391e-06
1.8742e-07
1.32238e-07
2.21081e-06
8.29705e-06
3.41108e-06
2.19206e-06
1.8818e-06
1.82098e-06
1.93017e-06
2.39668e-06
3.64647e-06
6.60768e-06
7.07915e-06
7.48124e-06
7.87696e-06
6.4366e-06
4.93548e-06
4.43534e-06
4.95591e-06
7.14322e-06
1.27436e-05
1.85968e-05
1.89121e-05
1.6557e-05
1.50487e-05
1.57052e-05
1.28546e-05
1.078e-05
1.07399e-05
1.08622e-05
1.16974e-05
1.38225e-05
1.76935e-05
1.84437e-05
5.48232e-06
1.6731e-07
1.28649e-07
2.12584e-06
8.31598e-06
3.81762e-06
2.36599e-06
1.94414e-06
1.83279e-06
1.99001e-06
2.77259e-06
4.93878e-06
9.11596e-06
1.02626e-05
1.1321e-05
8.72183e-06
7.57402e-06
7.6087e-06
8.9233e-06
1.22557e-05
1.91179e-05
3.03018e-05
3.60035e-05
2.64388e-05
1.79955e-05
1.71098e-05
1.26952e-05
9.73766e-06
1.06344e-05
1.26127e-05
1.45508e-05
1.71437e-05
2.05643e-05
2.20779e-05
1.55023e-05
4.67259e-06
1.68908e-07
1.25144e-07
2.08809e-06
8.40273e-06
4.16193e-06
2.52982e-06
2.06185e-06
2.02336e-06
2.46814e-06
4.0914e-06
9.16835e-06
1.364e-05
1.58552e-05
1.23709e-05
1.07615e-05
1.09026e-05
1.26969e-05
1.69074e-05
2.50411e-05
3.78618e-05
4.26266e-05
3.0803e-05
1.93676e-05
1.65241e-05
1.18699e-05
1.0681e-05
1.40819e-05
1.73325e-05
1.98205e-05
2.22211e-05
2.49535e-05
2.79858e-05
2.8269e-05
1.76516e-05
4.76616e-06
1.97755e-07
1.2115e-07
2.05167e-06
8.48629e-06
4.48438e-06
2.69162e-06
2.22341e-06
2.3216e-06
3.17466e-06
6.16909e-06
1.50395e-05
1.74911e-05
1.65998e-05
1.36171e-05
1.32656e-05
1.51173e-05
1.97471e-05
2.88104e-05
4.13318e-05
4.42166e-05
3.08884e-05
1.80385e-05
1.63946e-05
1.37781e-05
1.30584e-05
1.69966e-05
1.98755e-05
2.12672e-05
2.22304e-05
2.37629e-05
2.63639e-05
2.99887e-05
3.11488e-05
1.92794e-05
4.97674e-06
2.35594e-07
1.15121e-07
2.01111e-06
8.3969e-06
4.82617e-06
2.8766e-06
2.4514e-06
2.75469e-06
4.19369e-06
9.04307e-06
1.80058e-05
2.07059e-05
1.6888e-05
1.48035e-05
1.57749e-05
1.99735e-05
2.93776e-05
4.15126e-05
4.41839e-05
2.77553e-05
1.81569e-05
1.80395e-05
1.63152e-05
1.52356e-05
1.80277e-05
2.00251e-05
2.1114e-05
2.18388e-05
2.30658e-05
2.5135e-05
2.79745e-05
3.10352e-05
3.12278e-05
1.85979e-05
4.99281e-06
2.56567e-07
1.07325e-07
1.95621e-06
8.09115e-06
5.4263e-06
3.20694e-06
2.75294e-06
3.17863e-06
5.04947e-06
1.11806e-05
1.99867e-05
1.89431e-05
1.52828e-05
1.53747e-05
1.92619e-05
2.93003e-05
4.1495e-05
4.42091e-05
2.84529e-05
1.87932e-05
1.89608e-05
2.01498e-05
1.79113e-05
1.84476e-05
2.08207e-05
2.23806e-05
2.31502e-05
2.40056e-05
2.52657e-05
2.70824e-05
2.96626e-05
3.26349e-05
3.25719e-05
1.89145e-05
5.07414e-06
2.67166e-07
9.99939e-08
1.90065e-06
7.76052e-06
5.95643e-06
3.50736e-06
3.09198e-06
3.81349e-06
6.76158e-06
1.53361e-05
2.00145e-05
1.64541e-05
1.62047e-05
2.02839e-05
3.07632e-05
4.16339e-05
4.2861e-05
2.94848e-05
2.12561e-05
1.96109e-05
2.26956e-05
2.25158e-05
2.1554e-05
2.43727e-05
2.53041e-05
2.48511e-05
2.43937e-05
2.43418e-05
2.50932e-05
2.70311e-05
3.02405e-05
3.42645e-05
3.45883e-05
1.95117e-05
5.22783e-06
2.86995e-07
9.25254e-08
1.8203e-06
7.05842e-06
6.73539e-06
3.97351e-06
3.60149e-06
4.75294e-06
9.04816e-06
1.78109e-05
1.93579e-05
1.8564e-05
2.18074e-05
3.1116e-05
4.06198e-05
4.03569e-05
2.97909e-05
2.28585e-05
2.16538e-05
2.5154e-05
2.61771e-05
2.52014e-05
2.74965e-05
2.86709e-05
2.81521e-05
2.68637e-05
2.53893e-05
2.43268e-05
2.41007e-05
2.57892e-05
2.95428e-05
3.44941e-05
3.562e-05
2.01373e-05
5.40342e-06
3.12208e-07
8.33722e-08
1.72534e-06
6.2013e-06
8.2558e-06
4.84351e-06
4.30119e-06
5.75318e-06
1.06465e-05
1.8233e-05
2.03881e-05
2.27098e-05
2.98746e-05
3.79408e-05
3.66723e-05
2.87263e-05
2.37858e-05
2.29206e-05
2.47026e-05
3.0126e-05
3.23618e-05
3.1243e-05
3.27895e-05
3.27699e-05
3.08172e-05
2.82972e-05
2.58884e-05
2.40109e-05
2.35463e-05
2.50823e-05
2.89249e-05
3.47564e-05
3.73572e-05
2.16665e-05
5.74211e-06
3.32867e-07
7.37167e-08
1.6309e-06
5.39368e-06
9.8244e-06
6.11952e-06
5.31637e-06
6.77813e-06
1.10526e-05
1.68986e-05
2.13871e-05
2.73169e-05
3.3283e-05
3.2823e-05
2.74671e-05
2.36881e-05
2.41259e-05
2.72257e-05
3.09873e-05
3.70731e-05
3.94797e-05
3.8153e-05
3.83713e-05
3.63858e-05
3.2917e-05
2.90222e-05
2.54746e-05
2.28454e-05
2.22838e-05
2.40645e-05
2.86306e-05
3.56768e-05
3.92776e-05
2.28371e-05
6.03759e-06
3.44729e-07
6.68217e-08
1.55141e-06
4.85534e-06
1.01388e-05
7.25825e-06
6.35751e-06
7.8089e-06
1.17701e-05
1.78148e-05
2.41293e-05
2.76642e-05
2.62455e-05
2.41704e-05
2.4702e-05
2.71426e-05
2.96924e-05
3.28648e-05
3.73254e-05
4.50884e-05
4.86138e-05
4.61187e-05
4.4152e-05
4.00375e-05
3.47204e-05
2.94003e-05
2.47064e-05
2.15603e-05
2.07971e-05
2.25242e-05
2.76248e-05
3.61421e-05
4.09606e-05
2.40572e-05
6.32368e-06
3.6331e-07
6.04013e-08
1.48862e-06
4.45833e-06
9.89768e-06
8.50004e-06
7.8771e-06
9.66666e-06
1.43664e-05
2.05631e-05
2.41765e-05
2.47587e-05
2.45449e-05
2.50033e-05
2.65326e-05
2.95699e-05
3.40356e-05
3.88942e-05
4.46128e-05
5.16039e-05
5.79027e-05
5.6245e-05
5.06381e-05
4.5293e-05
3.81586e-05
3.07517e-05
2.43676e-05
2.02945e-05
1.88316e-05
2.0103e-05
2.52801e-05
3.54122e-05
4.30677e-05
2.60562e-05
6.64314e-06
3.98302e-07
5.42561e-08
1.43573e-06
4.14199e-06
9.45829e-06
9.74016e-06
9.6694e-06
1.21837e-05
1.68731e-05
2.07327e-05
2.19477e-05
2.24052e-05
2.36727e-05
2.61325e-05
2.97522e-05
3.4162e-05
3.87972e-05
4.39872e-05
4.99382e-05
5.6031e-05
6.27765e-05
6.33888e-05
5.74079e-05
5.06576e-05
4.20448e-05
3.26633e-05
2.47095e-05
1.94551e-05
1.71006e-05
1.76381e-05
2.2102e-05
3.27279e-05
4.45467e-05
2.87348e-05
7.00079e-06
4.4688e-07
4.89508e-08
1.3984e-06
3.88478e-06
8.99293e-06
1.11972e-05
1.22471e-05
1.495e-05
1.79037e-05
1.94163e-05
2.04105e-05
2.21197e-05
2.4965e-05
2.8848e-05
3.32879e-05
3.76593e-05
4.22682e-05
4.77103e-05
5.37722e-05
5.95976e-05
6.42324e-05
6.45542e-05
6.02445e-05
5.29924e-05
4.30895e-05
3.20567e-05
2.27689e-05
1.7766e-05
1.61298e-05
1.71438e-05
2.12773e-05
3.05165e-05
4.40332e-05
3.16947e-05
7.43593e-06
4.97784e-07
4.33624e-08
1.3651e-06
3.65419e-06
8.40106e-06
1.24028e-05
1.46512e-05
1.6683e-05
1.8045e-05
1.88863e-05
2.0233e-05
2.27073e-05
2.63379e-05
3.06573e-05
3.4964e-05
3.8981e-05
4.33776e-05
4.84099e-05
5.33649e-05
5.70728e-05
5.9287e-05
5.95437e-05
5.5745e-05
4.71002e-05
3.53798e-05
2.53478e-05
1.94354e-05
1.66928e-05
1.63269e-05
1.79856e-05
2.23548e-05
3.14279e-05
4.41227e-05
3.20522e-05
7.64735e-06
5.11995e-07
4.04006e-08
1.37698e-06
3.57571e-06
8.14474e-06
1.33229e-05
1.61162e-05
1.73778e-05
1.80251e-05
1.90408e-05
2.10984e-05
2.43557e-05
2.84493e-05
3.2673e-05
3.65992e-05
4.05898e-05
4.48368e-05
4.88316e-05
5.20408e-05
5.39757e-05
5.37683e-05
5.216e-05
4.5829e-05
3.49362e-05
2.52067e-05
1.9056e-05
1.63395e-05
1.60157e-05
1.73615e-05
2.05284e-05
2.64849e-05
3.61759e-05
4.55152e-05
3.09514e-05
7.73717e-06
5.10585e-07
3.99668e-08
1.39113e-06
3.61733e-06
8.10814e-06
1.35226e-05
1.67065e-05
1.7956e-05
1.87791e-05
2.02412e-05
2.28178e-05
2.64075e-05
3.04107e-05
3.42912e-05
3.80265e-05
4.17983e-05
4.5295e-05
4.832e-05
5.05811e-05
5.22189e-05
5.13823e-05
4.54241e-05
3.72989e-05
2.50854e-05
1.76806e-05
1.52531e-05
1.49561e-05
1.61087e-05
1.88724e-05
2.39264e-05
3.17603e-05
4.08823e-05
4.52029e-05
2.7834e-05
7.56223e-06
5.06781e-07
4.11076e-08
1.437e-06
3.65933e-06
8.00513e-06
1.36195e-05
1.70319e-05
1.85625e-05
2.00238e-05
2.23401e-05
2.56148e-05
2.94077e-05
3.3205e-05
3.68942e-05
4.05495e-05
4.38714e-05
4.68819e-05
4.94945e-05
5.1378e-05
5.13855e-05
4.69451e-05
3.68363e-05
2.7932e-05
1.83415e-05
1.39853e-05
1.35784e-05
1.45392e-05
1.67084e-05
2.05463e-05
2.67213e-05
3.53481e-05
4.41403e-05
4.61883e-05
2.66923e-05
7.47282e-06
5.27754e-07
4.1623e-08
1.46107e-06
3.72599e-06
8.09775e-06
1.38233e-05
1.7821e-05
1.98533e-05
2.12909e-05
2.31644e-05
2.58526e-05
2.9383e-05
3.32866e-05
3.70539e-05
4.02999e-05
4.30025e-05
4.51002e-05
4.65398e-05
4.70267e-05
4.51433e-05
3.83812e-05
2.78824e-05
2.07661e-05
1.50975e-05
1.28723e-05
1.34283e-05
1.50205e-05
1.76573e-05
2.1866e-05
2.82855e-05
3.76065e-05
4.78728e-05
5.07303e-05
2.84962e-05
7.77537e-06
5.80734e-07
3.99097e-08
1.4803e-06
3.74385e-06
8.11955e-06
1.399e-05
1.83828e-05
2.12207e-05
2.33124e-05
2.51678e-05
2.67697e-05
2.86899e-05
3.11536e-05
3.35467e-05
3.57026e-05
3.75018e-05
3.89819e-05
4.00879e-05
4.01205e-05
3.68669e-05
2.90186e-05
2.28117e-05
1.6488e-05
1.28656e-05
1.23019e-05
1.33153e-05
1.55114e-05
1.89783e-05
2.41607e-05
3.12872e-05
4.04156e-05
5.0147e-05
5.28489e-05
2.94382e-05
8.00514e-06
5.88266e-07
3.80964e-08
1.52563e-06
3.86094e-06
8.18963e-06
1.38763e-05
1.83309e-05
2.12264e-05
2.35708e-05
2.57838e-05
2.80139e-05
2.98089e-05
3.15317e-05
3.3687e-05
3.60914e-05
3.85696e-05
4.09285e-05
4.26153e-05
4.17555e-05
3.52212e-05
2.49304e-05
1.95555e-05
1.34588e-05
1.08301e-05
1.12436e-05
1.22302e-05
1.42791e-05
1.84251e-05
2.60991e-05
3.64201e-05
4.53403e-05
5.16677e-05
5.08201e-05
2.83027e-05
7.99338e-06
5.93562e-07
3.66119e-08
1.52531e-06
3.91432e-06
8.36209e-06
1.37991e-05
1.79299e-05
2.09621e-05
2.36186e-05
2.62118e-05
2.91801e-05
3.24171e-05
3.56675e-05
3.90264e-05
4.26395e-05
4.65973e-05
5.08992e-05
5.3896e-05
5.46374e-05
4.15464e-05
2.57066e-05
1.81611e-05
1.22621e-05
9.49356e-06
9.06857e-06
9.64495e-06
1.15242e-05
1.51536e-05
2.07169e-05
3.02015e-05
4.51287e-05
5.1791e-05
4.89368e-05
2.74026e-05
7.8152e-06
6.98177e-07
3.01583e-08
1.49106e-06
3.80517e-06
8.09791e-06
1.3462e-05
1.76169e-05
2.06586e-05
2.33507e-05
2.60183e-05
2.88255e-05
3.18753e-05
3.51666e-05
3.85222e-05
4.1786e-05
4.48283e-05
4.74827e-05
4.93698e-05
4.89778e-05
4.32278e-05
3.4426e-05
2.41788e-05
1.59217e-05
1.35222e-05
1.1056e-05
8.42537e-06
7.69891e-06
8.73474e-06
1.28815e-05
2.13672e-05
3.26033e-05
4.62024e-05
5.32482e-05
3.09907e-05
8.30825e-06
9.73928e-07
2.17516e-08
1.43752e-06
3.535e-06
7.5103e-06
1.29851e-05
1.74606e-05
2.05267e-05
2.30273e-05
2.53248e-05
2.74635e-05
2.96233e-05
3.15459e-05
3.29707e-05
3.377e-05
3.39415e-05
3.36224e-05
3.29725e-05
3.21108e-05
3.04589e-05
2.62326e-05
2.04774e-05
1.60721e-05
1.79249e-05
1.71896e-05
1.19644e-05
9.74875e-06
9.56275e-06
1.07191e-05
1.37164e-05
2.06956e-05
3.50265e-05
5.20356e-05
3.59071e-05
8.8544e-06
1.13211e-06
1.61905e-08
1.44287e-06
3.35748e-06
6.91487e-06
1.23457e-05
1.73411e-05
2.05969e-05
2.28775e-05
2.47061e-05
2.615e-05
2.73114e-05
2.79858e-05
2.82916e-05
2.81721e-05
2.77372e-05
2.70809e-05
2.62102e-05
2.50135e-05
2.3183e-05
2.03017e-05
1.69989e-05
1.72498e-05
1.65671e-05
1.47383e-05
1.49071e-05
1.49612e-05
1.50225e-05
1.53672e-05
1.70172e-05
2.15243e-05
3.11626e-05
4.49603e-05
3.82903e-05
9.06362e-06
1.13129e-06
1.43391e-08
1.58991e-06
3.54217e-06
6.90133e-06
1.21184e-05
1.73244e-05
2.07967e-05
2.30582e-05
2.46552e-05
2.59113e-05
2.6953e-05
2.77083e-05
2.79019e-05
2.78402e-05
2.75734e-05
2.71307e-05
2.64743e-05
2.53192e-05
2.3288e-05
2.14169e-05
2.14784e-05
2.13282e-05
2.01544e-05
1.92337e-05
1.89235e-05
1.9399e-05
2.03711e-05
2.18505e-05
2.35781e-05
2.66993e-05
3.44545e-05
4.75713e-05
3.50904e-05
8.73137e-06
1.02026e-06
1.55246e-08
1.74536e-06
4.00503e-06
7.47441e-06
1.22133e-05
1.69553e-05
2.07503e-05
2.36816e-05
2.59711e-05
2.75769e-05
2.84499e-05
2.89381e-05
2.93647e-05
2.97773e-05
3.00036e-05
3.02898e-05
3.07851e-05
3.01071e-05
2.80874e-05
2.77266e-05
2.20184e-05
1.81501e-05
1.76581e-05
1.7617e-05
1.81567e-05
1.95332e-05
2.21206e-05
2.62013e-05
3.18099e-05
3.82162e-05
4.46004e-05
4.92032e-05
3.11399e-05
8.04836e-06
9.16705e-07
1.82981e-08
1.93631e-06
4.44261e-06
7.92704e-06
1.23586e-05
1.67602e-05
2.03042e-05
2.32299e-05
2.57829e-05
2.78864e-05
2.96776e-05
3.12035e-05
3.28888e-05
3.47763e-05
3.57732e-05
3.49368e-05
3.18468e-05
2.79697e-05
2.65946e-05
1.96062e-05
1.55231e-05
1.57132e-05
1.67485e-05
1.83124e-05
2.05352e-05
2.35497e-05
2.74635e-05
3.24921e-05
3.85583e-05
4.48857e-05
5.01973e-05
4.95453e-05
2.72718e-05
7.7296e-06
9.13553e-07
2.12717e-08
2.04093e-06
5.02539e-06
8.93732e-06
1.32089e-05
1.74218e-05
2.10188e-05
2.37842e-05
2.6212e-05
2.84755e-05
3.02475e-05
3.16359e-05
3.19686e-05
3.08262e-05
3.12906e-05
2.89259e-05
2.30728e-05
2.05211e-05
1.62437e-05
1.4313e-05
1.57069e-05
1.75115e-05
1.97379e-05
2.23648e-05
2.54313e-05
2.87812e-05
3.21565e-05
3.57228e-05
4.05578e-05
4.77329e-05
5.30197e-05
5.01257e-05
2.6138e-05
7.56336e-06
9.31233e-07
2.49726e-08
2.1477e-06
5.43932e-06
9.58917e-06
1.33157e-05
1.63619e-05
1.90964e-05
2.15092e-05
2.3845e-05
2.60407e-05
2.77612e-05
2.87128e-05
2.80519e-05
2.72451e-05
2.11287e-05
1.66485e-05
1.63691e-05
1.44824e-05
1.39901e-05
1.66161e-05
1.87914e-05
2.12348e-05
2.42947e-05
2.7872e-05
3.16777e-05
3.53708e-05
3.87177e-05
4.18992e-05
4.55922e-05
5.00589e-05
5.36556e-05
5.02152e-05
2.57007e-05
7.4346e-06
9.11209e-07
3.46123e-08
2.21575e-06
5.45527e-06
8.89837e-06
1.20873e-05
1.56168e-05
1.94706e-05
2.29669e-05
2.69219e-05
2.93217e-05
2.77808e-05
2.47479e-05
2.10504e-05
1.60528e-05
1.5836e-05
1.30942e-05
1.21379e-05
1.47029e-05
1.60757e-05
1.79635e-05
2.0553e-05
2.3866e-05
2.77395e-05
3.185e-05
3.59763e-05
3.99166e-05
4.36168e-05
4.70671e-05
5.00858e-05
5.25401e-05
5.39243e-05
4.78519e-05
2.25785e-05
6.89907e-06
7.94537e-07
5.1443e-08
2.0563e-06
5.38398e-06
1.00361e-05
1.51627e-05
2.02384e-05
2.39784e-05
2.69654e-05
2.8056e-05
2.62109e-05
2.23005e-05
1.63379e-05
1.21582e-05
1.2494e-05
1.02662e-05
9.94453e-06
1.33381e-05
1.43288e-05
1.64154e-05
1.92633e-05
2.26167e-05
2.62784e-05
3.02353e-05
3.4657e-05
3.86448e-05
4.20912e-05
4.59297e-05
4.95462e-05
5.25404e-05
5.43633e-05
5.33708e-05
4.39791e-05
2.06376e-05
6.73022e-06
7.66308e-07
7.946e-08
2.44256e-06
7.70725e-06
1.5533e-05
2.06943e-05
2.4177e-05
2.74776e-05
2.87621e-05
2.58829e-05
1.96097e-05
1.2575e-05
8.99231e-06
9.09104e-06
7.83336e-06
7.74611e-06
1.19386e-05
1.35583e-05
1.36689e-05
1.46302e-05
1.69141e-05
2.00031e-05
2.34855e-05
2.7129e-05
3.07972e-05
3.56292e-05
4.18313e-05
4.74207e-05
5.24807e-05
5.51641e-05
5.51885e-05
5.23011e-05
4.00139e-05
1.81063e-05
6.34169e-06
7.89409e-07
6.74857e-08
2.18346e-06
6.61584e-06
1.52961e-05
2.30466e-05
2.72052e-05
2.81443e-05
2.73555e-05
2.11931e-05
1.35727e-05
9.67176e-06
8.8323e-06
8.4923e-06
8.40322e-06
9.69906e-06
1.18479e-05
1.35865e-05
1.36312e-05
1.45857e-05
1.64098e-05
1.83386e-05
2.0407e-05
2.33834e-05
2.73747e-05
3.24417e-05
3.81563e-05
4.40653e-05
4.90017e-05
5.37988e-05
5.65088e-05
5.35585e-05
4.07826e-05
1.83478e-05
6.52306e-06
9.34348e-07
2.87391e-08
1.58437e-06
4.63785e-06
1.27313e-05
2.05322e-05
2.33552e-05
2.31887e-05
2.09456e-05
1.7434e-05
1.29009e-05
9.10886e-06
9.10763e-06
1.06381e-05
9.38673e-06
1.00533e-05
1.30114e-05
1.53606e-05
1.64066e-05
1.85055e-05
2.15834e-05
2.27988e-05
2.26074e-05
2.26108e-05
2.34481e-05
2.57653e-05
3.06552e-05
3.76837e-05
4.51019e-05
5.20779e-05
5.6159e-05
5.47029e-05
4.35906e-05
2.07375e-05
6.82012e-06
1.10996e-06
8.81888e-09
1.5725e-06
3.19179e-06
6.59261e-06
1.07213e-05
1.29191e-05
1.36062e-05
1.2489e-05
1.10934e-05
8.2428e-06
8.33137e-06
8.88345e-06
7.56654e-06
9.0628e-06
1.24435e-05
1.54622e-05
1.70497e-05
2.0432e-05
2.44417e-05
2.57696e-05
2.67249e-05
2.81799e-05
2.8994e-05
2.9739e-05
3.04422e-05
3.05659e-05
3.19224e-05
3.53049e-05
4.1517e-05
4.91575e-05
5.21906e-05
4.4144e-05
2.12015e-05
6.89693e-06
1.11859e-06
1.53692e-08
2.5253e-06
4.90779e-06
7.86748e-06
9.50523e-06
9.57863e-06
8.85925e-06
6.87595e-06
6.97868e-06
7.83684e-06
7.91091e-06
9.37384e-06
1.18338e-05
1.4658e-05
1.94946e-05
2.51837e-05
2.82872e-05
3.06528e-05
3.09821e-05
3.11295e-05
3.15589e-05
3.19464e-05
3.22792e-05
3.27495e-05
3.35683e-05
3.52793e-05
3.8494e-05
4.26062e-05
4.47515e-05
4.67391e-05
4.96628e-05
4.49801e-05
2.23192e-05
6.87076e-06
1.04261e-06
1.28025e-08
3.0497e-06
8.30007e-06
8.88978e-06
8.13512e-06
8.33738e-06
9.4007e-06
1.16362e-05
1.50563e-05
1.7198e-05
1.84493e-05
1.95028e-05
2.13987e-05
2.45801e-05
2.91847e-05
3.44825e-05
3.42002e-05
3.08827e-05
2.94777e-05
2.94065e-05
2.98085e-05
3.09304e-05
3.273e-05
3.46254e-05
3.63808e-05
3.79286e-05
3.97659e-05
4.28845e-05
4.71692e-05
5.1618e-05
5.25844e-05
4.38797e-05
2.08161e-05
6.77909e-06
8.94202e-07
7.5137e-09
4.2134e-06
5.64071e-06
6.95411e-06
9.25798e-06
1.25289e-05
1.69268e-05
2.18681e-05
2.69255e-05
3.26891e-05
3.87646e-05
4.0721e-05
3.86754e-05
3.72594e-05
3.52487e-05
3.21881e-05
2.81536e-05
2.6221e-05
2.7163e-05
2.92323e-05
3.21315e-05
3.49621e-05
3.69725e-05
3.83863e-05
3.97912e-05
4.16433e-05
4.40247e-05
4.67464e-05
4.95007e-05
5.20547e-05
5.22896e-05
4.35352e-05
2.05598e-05
6.71479e-06
8.77251e-07
3.84382e-09
3.44149e-06
4.55618e-06
6.21632e-06
9.36197e-06
1.50153e-05
2.28864e-05
2.86847e-05
3.23706e-05
3.60945e-05
3.98382e-05
4.35892e-05
4.73407e-05
4.12602e-05
3.34158e-05
2.75014e-05
2.58025e-05
2.66095e-05
2.82829e-05
3.09946e-05
3.40418e-05
3.66661e-05
3.8564e-05
3.98315e-05
4.09833e-05
4.2379e-05
4.41658e-05
4.65352e-05
4.9626e-05
5.26038e-05
5.23645e-05
4.29688e-05
2.02292e-05
6.70433e-06
8.89429e-07
4.21479e-09
2.65388e-06
5.33477e-06
8.5305e-06
1.2544e-05
1.79027e-05
2.45861e-05
2.81776e-05
3.18119e-05
3.54982e-05
3.92458e-05
4.30553e-05
4.69118e-05
4.30832e-05
3.55257e-05
3.1089e-05
2.87681e-05
2.82446e-05
2.9742e-05
3.27642e-05
3.6196e-05
3.942e-05
4.13611e-05
4.18824e-05
4.17645e-05
4.17145e-05
4.20458e-05
4.34806e-05
4.65424e-05
5.01651e-05
5.14659e-05
4.45446e-05
2.10854e-05
6.88572e-06
9.70142e-07
1.05096e-08
3.12685e-06
8.47721e-06
1.59301e-05
2.22881e-05
2.56188e-05
2.8872e-05
3.21255e-05
3.54294e-05
3.88253e-05
4.23414e-05
4.59883e-05
4.97528e-05
4.58653e-05
4.09454e-05
3.7458e-05
3.55721e-05
3.58759e-05
3.72023e-05
3.88518e-05
4.11922e-05
4.30011e-05
4.31384e-05
4.17055e-05
4.00269e-05
3.83909e-05
3.72715e-05
3.77446e-05
4.06677e-05
4.62206e-05
5.05736e-05
4.604e-05
2.30867e-05
7.09178e-06
1.07355e-06
2.13791e-08
4.02631e-06
1.30227e-05
2.66255e-05
3.05715e-05
3.40861e-05
3.74234e-05
4.07042e-05
4.40124e-05
4.74043e-05
5.09122e-05
5.45372e-05
5.59042e-05
5.19203e-05
4.81679e-05
4.52181e-05
4.33846e-05
4.26388e-05
4.31333e-05
4.469e-05
4.60826e-05
4.64276e-05
4.54877e-05
4.38493e-05
4.20409e-05
4.01341e-05
3.80292e-05
3.6507e-05
3.66661e-05
3.94848e-05
4.60465e-05
4.75736e-05
2.42749e-05
7.20923e-06
1.08921e-06
3.13872e-08
4.67498e-06
1.61982e-05
3.36025e-05
3.77981e-05
4.15667e-05
4.51127e-05
4.85704e-05
5.20281e-05
5.55349e-05
5.91124e-05
6.2754e-05
6.64247e-05
6.05123e-05
5.43225e-05
5.08634e-05
4.88454e-05
4.75506e-05
4.68719e-05
4.65043e-05
4.62887e-05
4.5749e-05
4.42309e-05
4.23993e-05
4.07159e-05
3.91343e-05
3.80394e-05
3.81037e-05
4.00532e-05
4.3791e-05
4.69801e-05
4.66871e-05
2.62587e-05
7.38364e-06
1.05325e-06
3.61294e-08
4.87765e-06
1.63787e-05
3.82429e-05
4.27657e-05
4.68759e-05
5.07306e-05
5.44329e-05
5.80586e-05
6.16572e-05
6.52551e-05
6.88558e-05
7.24498e-05
6.95569e-05
6.09992e-05
5.57435e-05
5.31468e-05
5.17316e-05
5.05817e-05
4.92237e-05
4.7611e-05
4.58379e-05
4.40262e-05
4.22342e-05
4.06339e-05
3.94954e-05
3.90165e-05
3.93973e-05
4.10105e-05
4.44351e-05
4.80405e-05
4.48364e-05
2.37609e-05
7.30496e-06
9.71254e-07
3.5761e-08
4.76888e-06
1.51164e-05
4.01896e-05
4.53163e-05
4.99338e-05
5.41878e-05
5.81876e-05
6.2009e-05
6.57075e-05
6.93185e-05
7.28588e-05
7.63284e-05
7.43475e-05
6.43163e-05
5.78787e-05
5.44136e-05
5.20976e-05
5.0041e-05
4.80695e-05
4.60118e-05
4.39914e-05
4.22915e-05
4.10144e-05
4.02413e-05
4.00324e-05
4.04442e-05
4.15631e-05
4.34533e-05
4.59042e-05
4.80148e-05
4.43991e-05
2.28661e-05
7.07202e-06
9.22243e-07
3.23283e-08
4.67261e-06
1.35723e-05
3.44556e-05
4.55016e-05
5.01468e-05
5.45014e-05
5.86157e-05
6.2536e-05
6.63013e-05
6.99427e-05
7.34806e-05
7.69263e-05
7.60907e-05
6.43584e-05
5.64312e-05
5.18991e-05
4.87347e-05
4.60695e-05
4.39074e-05
4.23498e-05
4.12545e-05
4.05064e-05
4.00447e-05
3.99078e-05
4.02568e-05
4.11571e-05
4.2722e-05
4.48293e-05
4.70928e-05
4.8145e-05
4.35055e-05
2.24552e-05
6.998e-06
9.13217e-07
2.70162e-08
4.49029e-06
1.18212e-05
2.74337e-05
4.46352e-05
4.94178e-05
5.39389e-05
5.82107e-05
6.22596e-05
6.61173e-05
6.98148e-05
7.3378e-05
7.68244e-05
7.35818e-05
6.07019e-05
5.17914e-05
4.67423e-05
4.39356e-05
4.24381e-05
4.17229e-05
4.14488e-05
4.18223e-05
4.23481e-05
4.22866e-05
4.1918e-05
4.16728e-05
4.2298e-05
4.38467e-05
4.60758e-05
4.82422e-05
4.8675e-05
4.28419e-05
2.1746e-05
6.93536e-06
9.17944e-07
2.16099e-08
4.12997e-06
1.0085e-05
2.16531e-05
4.13001e-05
4.61799e-05
5.0841e-05
5.52722e-05
5.9482e-05
6.34934e-05
6.73339e-05
7.10294e-05
7.4602e-05
6.19868e-05
5.10469e-05
4.48787e-05
4.2288e-05
4.17663e-05
4.244e-05
4.43439e-05
4.67504e-05
4.72316e-05
4.57554e-05
4.40101e-05
4.25675e-05
4.17468e-05
4.21086e-05
4.39584e-05
4.67485e-05
4.95089e-05
5.00251e-05
4.36121e-05
2.13145e-05
6.76453e-06
9.34648e-07
1.76927e-08
3.81876e-06
8.9505e-06
1.80353e-05
3.35374e-05
4.26671e-05
4.73131e-05
5.17886e-05
5.60814e-05
6.0201e-05
6.4171e-05
6.80171e-05
5.87926e-05
4.87448e-05
4.31778e-05
4.15277e-05
4.24899e-05
4.51939e-05
4.9281e-05
5.15311e-05
5.07047e-05
4.91006e-05
4.72029e-05
4.50569e-05
4.29274e-05
4.18688e-05
4.13271e-05
4.22952e-05
4.55825e-05
4.93021e-05
5.03818e-05
4.37979e-05
2.08042e-05
6.6142e-06
9.56844e-07
1.55669e-08
3.66034e-06
8.53151e-06
1.61856e-05
2.80498e-05
3.98835e-05
4.4529e-05
4.90785e-05
5.34635e-05
5.76696e-05
6.17541e-05
5.47291e-05
4.68676e-05
4.26489e-05
4.21352e-05
4.4264e-05
4.84127e-05
5.29569e-05
5.46829e-05
5.41584e-05
5.35527e-05
5.23745e-05
5.0064e-05
4.64994e-05
4.22638e-05
3.88839e-05
3.82368e-05
3.97488e-05
4.27528e-05
4.70906e-05
4.89065e-05
4.22756e-05
1.99995e-05
6.49952e-06
9.82314e-07
1.5327e-08
3.71866e-06
8.91729e-06
1.65499e-05
2.68316e-05
3.78947e-05
4.28274e-05
4.72979e-05
5.17568e-05
5.45365e-05
5.00798e-05
4.52575e-05
4.29462e-05
4.34973e-05
4.66448e-05
5.15111e-05
5.52887e-05
5.71897e-05
5.87279e-05
5.98458e-05
5.92975e-05
5.67733e-05
5.27684e-05
4.73184e-05
4.15991e-05
3.71315e-05
3.54007e-05
3.71434e-05
4.11921e-05
4.56632e-05
4.77879e-05
4.16869e-05
1.99237e-05
6.47739e-06
1.00752e-06
1.64808e-08
3.70947e-06
9.39781e-06
1.7729e-05
2.80279e-05
3.7747e-05
4.27588e-05
4.71945e-05
4.81418e-05
4.61519e-05
4.3999e-05
4.35518e-05
4.53501e-05
4.93856e-05
5.34817e-05
5.62398e-05
5.92427e-05
6.2767e-05
6.56096e-05
6.64603e-05
6.42409e-05
5.93177e-05
5.29731e-05
4.60746e-05
3.96694e-05
3.63395e-05
3.57951e-05
3.66866e-05
3.99403e-05
4.48946e-05
4.78666e-05
4.20307e-05
1.99828e-05
6.43234e-06
1.01112e-06
1.95515e-08
3.82404e-06
1.02993e-05
2.03383e-05
3.1776e-05
4.01517e-05
4.46227e-05
4.68104e-05
4.63558e-05
4.57399e-05
4.63937e-05
4.8839e-05
5.266e-05
5.58104e-05
5.82316e-05
6.11687e-05
6.5089e-05
6.92403e-05
7.17431e-05
7.13379e-05
6.70444e-05
5.94775e-05
5.06007e-05
4.21869e-05
3.73924e-05
3.59556e-05
3.64029e-05
3.83865e-05
4.12469e-05
4.47845e-05
4.7621e-05
4.21603e-05
2.01065e-05
6.41491e-06
1.00101e-06
2.37147e-08
3.9102e-06
1.08365e-05
2.26825e-05
3.63218e-05
4.37889e-05
4.83405e-05
5.17247e-05
5.18527e-05
5.24703e-05
5.43259e-05
5.70567e-05
5.9927e-05
6.25854e-05
6.52088e-05
6.80816e-05
7.16081e-05
7.51933e-05
7.68252e-05
7.41836e-05
6.62695e-05
5.52593e-05
4.51104e-05
3.93387e-05
3.68455e-05
3.58185e-05
3.62028e-05
3.86113e-05
4.23287e-05
4.56716e-05
4.72153e-05
4.09202e-05
1.97848e-05
6.38312e-06
9.6453e-07
2.59396e-08
3.61506e-06
9.9211e-06
2.17519e-05
3.73535e-05
4.66545e-05
5.13982e-05
5.60616e-05
6.06528e-05
6.44179e-05
6.58812e-05
6.81324e-05
7.03005e-05
7.20308e-05
7.39202e-05
7.61943e-05
7.88302e-05
8.10358e-05
8.00652e-05
7.30681e-05
6.0982e-05
4.89765e-05
4.1237e-05
3.71395e-05
3.54823e-05
3.56663e-05
3.69687e-05
3.91555e-05
4.22954e-05
4.58176e-05
4.6753e-05
3.96031e-05
1.93509e-05
6.37008e-06
9.23745e-07
2.61533e-08
3.26834e-06
8.43593e-06
1.87135e-05
3.58299e-05
4.83824e-05
5.34312e-05
5.83538e-05
6.32207e-05
6.80188e-05
7.27263e-05
7.73208e-05
8.17804e-05
8.60828e-05
8.68377e-05
8.80702e-05
8.94623e-05
8.88064e-05
8.26552e-05
6.97363e-05
5.47033e-05
4.38278e-05
3.82207e-05
3.59236e-05
3.5446e-05
3.60032e-05
3.74818e-05
4.01582e-05
4.36661e-05
4.6856e-05
4.76009e-05
4.01772e-05
1.92628e-05
6.36382e-06
8.9114e-07
2.54074e-08
2.98557e-06
7.53128e-06
1.59907e-05
3.08853e-05
4.86307e-05
5.3898e-05
5.91763e-05
6.43457e-05
6.93971e-05
7.43286e-05
7.91326e-05
8.37912e-05
8.82766e-05
9.25565e-05
9.66077e-05
0.000100429
9.90132e-05
8.47806e-05
6.56384e-05
4.97015e-05
4.08372e-05
3.72524e-05
3.61363e-05
3.58204e-05
3.59972e-05
3.71257e-05
3.96752e-05
4.32173e-05
4.66816e-05
4.76919e-05
4.01889e-05
1.92183e-05
6.35705e-06
8.86619e-07
2.59994e-08
2.90381e-06
7.38469e-06
1.5468e-05
2.98033e-05
4.83381e-05
5.38773e-05
5.9439e-05
6.49132e-05
7.02179e-05
7.53817e-05
8.041e-05
8.53073e-05
9.00275e-05
9.44999e-05
9.86589e-05
0.000102449
0.000104671
8.38969e-05
6.20222e-05
4.76205e-05
4.09413e-05
3.85254e-05
3.74333e-05
3.63757e-05
3.54882e-05
3.56019e-05
3.75204e-05
4.12756e-05
4.58188e-05
4.73063e-05
4.02136e-05
1.94509e-05
6.4827e-06
8.96184e-07
2.8472e-08
2.93125e-06
7.92683e-06
1.686e-05
3.12475e-05
4.78345e-05
5.37208e-05
5.95396e-05
6.52782e-05
7.08991e-05
7.63124e-05
8.14876e-05
8.64126e-05
9.1081e-05
9.54721e-05
9.95526e-05
0.000103279
0.000105943
8.33344e-05
6.25166e-05
4.98475e-05
4.40992e-05
4.15026e-05
3.91301e-05
3.64294e-05
3.38896e-05
3.2636e-05
3.38194e-05
3.7764e-05
4.38482e-05
4.7481e-05
4.18801e-05
2.03511e-05
6.66387e-06
9.3728e-07
3.27908e-08
3.15298e-06
9.29718e-06
2.12724e-05
3.90785e-05
4.74858e-05
5.33823e-05
5.92874e-05
6.52148e-05
7.09174e-05
7.63609e-05
8.15426e-05
8.646e-05
9.11193e-05
9.55103e-05
9.95911e-05
0.000103324
0.000106657
8.79804e-05
6.86684e-05
5.59354e-05
4.92436e-05
4.5281e-05
4.1338e-05
3.68238e-05
3.24145e-05
2.95304e-05
2.94394e-05
3.28086e-05
3.94737e-05
4.58739e-05
4.36509e-05
2.14396e-05
6.79787e-06
9.95024e-07
3.88625e-08
3.64113e-06
1.18718e-05
2.90724e-05
4.2888e-05
4.86768e-05
5.43746e-05
5.99901e-05
6.55651e-05
7.11496e-05
7.65324e-05
8.16147e-05
8.64342e-05
9.10026e-05
9.52861e-05
9.92806e-05
0.000102929
0.000106159
9.31166e-05
7.52078e-05
6.22786e-05
5.48197e-05
4.97854e-05
4.45497e-05
3.854e-05
3.25318e-05
2.78156e-05
2.55676e-05
2.69818e-05
3.3288e-05
4.30167e-05
4.45223e-05
2.27552e-05
6.98652e-06
1.06647e-06
4.39612e-08
4.2023e-06