/*--------------------------------*- C++ -*----------------------------------*\
| =========                 |                                                 |
| \\      /  F ield         | OpenFOAM: The Open Source CFD Toolbox           |
|  \\    /   O peration     | Version:  v1906                                 |
|   \\  /    A nd           | Web:      www.OpenFOAM.com                      |
|    \\/     M anipulation  |                                                 |
\*---------------------------------------------------------------------------*/
FoamFile
{
    version     2.0;
    format      ascii;
    class       volScalarField;
    location    "900";
    object      k;
}
// * * * * * * * * * * * * * * * * * * * * * * * * * * * * * * * * * * * * * //

dimensions      [0 2 -2 0 0 0 0];


internalField   nonuniform List<scalar> 
78750
(
2.07101e-05
3.70761e-05
4.39307e-05
4.61918e-05
4.75569e-05
4.89092e-05
5.03062e-05
5.18589e-05
5.35927e-05
5.53934e-05
5.72299e-05
5.91109e-05
6.09338e-05
6.26964e-05
6.44095e-05
6.60734e-05
6.76888e-05
6.92471e-05
7.07363e-05
7.21376e-05
7.34202e-05
7.45445e-05
7.54749e-05
7.6194e-05
7.67048e-05
7.68187e-05
7.68005e-05
7.50219e-05
7.10018e-05
6.61725e-05
5.97423e-05
5.09512e-05
3.91356e-05
2.42762e-05
7.86102e-06
5.15763e-05
4.44524e-05
4.53573e-05
4.64769e-05
4.71752e-05
4.72201e-05
4.69376e-05
4.644e-05
4.57266e-05
4.47913e-05
4.36649e-05
4.24292e-05
4.12372e-05
4.02008e-05
3.94739e-05
3.92974e-05
3.99635e-05
4.20402e-05
4.61402e-05
5.27935e-05
6.1768e-05
7.20365e-05
8.22015e-05
9.18482e-05
0.000100673
0.00010921
0.00011763
0.000125327
0.000130798
0.000131492
0.000126277
0.000115745
9.9597e-05
7.29183e-05
3.46978e-05
5.93557e-05
4.89118e-05
4.55818e-05
4.49235e-05
4.37839e-05
4.21473e-05
4.02936e-05
3.83964e-05
3.65774e-05
3.49091e-05
3.34211e-05
3.20807e-05
3.08995e-05
2.99042e-05
2.91462e-05
2.87336e-05
2.88201e-05
2.9831e-05
3.2559e-05
3.82017e-05
4.73521e-05
5.87065e-05
7.01535e-05
8.05033e-05
9.00169e-05
0.000100083
0.000112553
0.000125144
0.000134346
0.000136979
0.000131966
0.000121222
0.000105395
8.00836e-05
3.91302e-05
6.47733e-05
5.36304e-05
4.73677e-05
4.39987e-05
4.14632e-05
3.89419e-05
3.64002e-05
3.39128e-05
3.16408e-05
2.96812e-05
2.80215e-05
2.66264e-05
2.55147e-05
2.47509e-05
2.44743e-05
2.47441e-05
2.59874e-05
2.86465e-05
3.36253e-05
4.20027e-05
5.41534e-05
6.82503e-05
8.22395e-05
9.69322e-05
0.000112398
0.000127839
0.000142864
0.000155087
0.000158052
0.000153333
0.00014622
0.000135266
0.000119122
8.96629e-05
4.03962e-05
6.50073e-05
5.55103e-05
4.86184e-05
4.40975e-05
4.02759e-05
3.66139e-05
3.3014e-05
2.96786e-05
2.68382e-05
2.46067e-05
2.29395e-05
2.17593e-05
2.10418e-05
2.07839e-05
2.09188e-05
2.17107e-05
2.36787e-05
2.74066e-05
3.32482e-05
4.21616e-05
5.39954e-05
6.70638e-05
8.11045e-05
9.59775e-05
0.00011218
0.000130518
0.000147502
0.000158479
0.000159851
0.000153764
0.000147403
0.000143931
0.000134065
0.000110058
5.89744e-05
6.51431e-05
5.77706e-05
5.08713e-05
4.51971e-05
4.04313e-05
3.60201e-05
3.19186e-05
2.83022e-05
2.53829e-05
2.32723e-05
2.18643e-05
2.10366e-05
2.0741e-05
2.08791e-05
2.15836e-05
2.32937e-05
2.54153e-05
2.82678e-05
3.30959e-05
4.17105e-05
5.32517e-05
6.54256e-05
7.79042e-05
9.19819e-05
0.000109181
0.000126879
0.000141245
0.000148324
0.000147097
0.00014174
0.000144391
0.000149661
0.000146666
0.000129172
8.59869e-05
6.30461e-05
5.84613e-05
5.25064e-05
4.66202e-05
4.10603e-05
3.60637e-05
3.15071e-05
2.75854e-05
2.45447e-05
2.26347e-05
2.18505e-05
2.19406e-05
2.2454e-05
2.31911e-05
2.40001e-05
2.48053e-05
2.57995e-05
2.80256e-05
3.22407e-05
3.90187e-05
4.72039e-05
5.56879e-05
6.45904e-05
7.37957e-05
8.30222e-05
9.19685e-05
9.89432e-05
0.000104291
0.000111917
0.000124477
0.000141556
0.00015575
0.000154735
0.000134703
9.06708e-05
6.05272e-05
5.8476e-05
5.38807e-05
4.84028e-05
4.25533e-05
3.69811e-05
3.18115e-05
2.71164e-05
2.3382e-05
2.1081e-05
2.01883e-05
2.0111e-05
2.05348e-05
2.13683e-05
2.26259e-05
2.45061e-05
2.72598e-05
3.12954e-05
3.69646e-05
4.40465e-05
5.15e-05
5.89587e-05
6.73782e-05
7.74643e-05
8.83173e-05
0.000100415
0.000116535
0.000139323
0.000164016
0.000185915
0.000198781
0.000196342
0.000178331
0.000139904
7.75589e-05
5.83745e-05
5.80966e-05
5.49578e-05
5.02222e-05
4.4438e-05
3.84646e-05
3.25821e-05
2.74892e-05
2.41488e-05
2.30513e-05
2.34805e-05
2.46635e-05
2.6135e-05
2.75966e-05
2.90331e-05
3.0793e-05
3.36401e-05
3.84863e-05
4.60914e-05
5.6581e-05
6.98928e-05
8.73295e-05
0.000110555
0.000138826
0.000169507
0.000200572
0.0002288
0.000246188
0.000252391
0.00025075
0.000238169
0.000216163
0.000185809
0.000140172
6.88765e-05
5.68013e-05
5.80402e-05
5.59429e-05
5.19e-05
4.63344e-05
4.00865e-05
3.39635e-05
2.93963e-05
2.77799e-05
2.90091e-05
3.22209e-05
3.65244e-05
4.16478e-05
4.77743e-05
5.54089e-05
6.50086e-05
7.73699e-05
9.28453e-05
0.000110937
0.000130604
0.000152145
0.000177492
0.000206505
0.000233014
0.000254099
0.000270751
0.000280875
0.000282705
0.000279195
0.000268765
0.000252453
0.000230025
0.000197919
0.000146703
6.95251e-05
5.52609e-05
5.81846e-05
5.73486e-05
5.4055e-05
4.87282e-05
4.25182e-05
3.72238e-05
3.5019e-05
3.6916e-05
4.23454e-05
4.97899e-05
5.87057e-05
6.94545e-05
8.23237e-05
9.70041e-05
0.0001135
0.000131714
0.000150856
0.000169823
0.00018917
0.000211052
0.000235859
0.000259255
0.00027944
0.000297223
0.000309652
0.000316226
0.000317084
0.000312164
0.000300485
0.000282216
0.000256474
0.000219699
0.000163483
8.15978e-05
5.35032e-05
5.81475e-05
5.8503e-05
5.58476e-05
5.07695e-05
4.5109e-05
4.14699e-05
4.19729e-05
4.72915e-05
5.56015e-05
6.57144e-05
7.81043e-05
9.30971e-05
0.000110309
0.000128621
0.000147338
0.000165553
0.00018246
0.000199186
0.000218084
0.000240526
0.0002635
0.000285005
0.000306164
0.000323575
0.000335571
0.000341895
0.000342478
0.000336537
0.000323602
0.000303911
0.000277365
0.000240586
0.000183177
9.7543e-05
5.08458e-05
5.77223e-05
5.93613e-05
5.75329e-05
5.32534e-05
4.88997e-05
4.73812e-05
5.05158e-05
5.81327e-05
6.8103e-05
7.97363e-05
9.4155e-05
0.000111698
0.000130916
0.000150177
0.00016812
0.000184133
0.000199669
0.000217792
0.000240304
0.000264093
0.000287841
0.0003128
0.000335877
0.00035426
0.000367345
0.000373507
0.000373727
0.000366251
0.000351151
0.000328264
0.000297988
0.0002565
0.00019444
0.00010638
4.74069e-05
5.64747e-05
5.9672e-05
5.88783e-05
5.56596e-05
5.25012e-05
5.22818e-05
5.67964e-05
6.56562e-05
7.67957e-05
9.0317e-05
0.000107724
0.000128239
0.000149156
0.000168128
0.000184584
0.000200397
0.000218908
0.000242233
0.000267597
0.000292484
0.000318441
0.000345303
0.000368824
0.000387347
0.000400198
0.00040539
0.000402941
0.000391074
0.000372097
0.000346303
0.000313802
0.000269741
0.000204217
0.000110926
4.41727e-05
5.49835e-05
5.96212e-05
6.00107e-05
5.80909e-05
5.63759e-05
5.80688e-05
6.50224e-05
7.61165e-05
8.97583e-05
0.00010701
0.00012808
0.000149862
0.000169306
0.000185987
0.000201955
0.000220282
0.000242748
0.000267507
0.000292559
0.000318544
0.000346627
0.000373953
0.000398284
0.000418982
0.000432982
0.000435541
0.000426261
0.000412243
0.000392768
0.000367625
0.000335952
0.000291856
0.000222143
0.00011945
4.08775e-05
5.31961e-05
5.92776e-05
6.08712e-05
6.03416e-05
6.05262e-05
6.48043e-05
7.45752e-05
8.79678e-05
0.000104089
0.000123626
0.000144831
0.000164222
0.00018079
0.000196433
0.000213885
0.000234799
0.000258359
0.000283114
0.000309489
0.000338972
0.00037038
0.000401286
0.000429676
0.000451082
0.000459785
0.000458116
0.000445315
0.000430447
0.000411181
0.000386503
0.000355216
0.000310916
0.000238615
0.00013016
3.68371e-05
5.0903e-05
5.87489e-05
6.19172e-05
6.32977e-05
6.58087e-05
7.2607e-05
8.44894e-05
9.95023e-05
0.00011689
0.00013634
0.000155266
0.000171923
0.000187703
0.000205109
0.000225743
0.000249528
0.000275879
0.000303904
0.000333795
0.000367254
0.000403193
0.000436038
0.000462418
0.000478611
0.000481541
0.000471422
0.000457513
0.000443615
0.000426502
0.000404113
0.000374815
0.000331721
0.000257025
0.000138985
3.25739e-05
4.77984e-05
5.74728e-05
6.24739e-05
6.57544e-05
7.01388e-05
7.81638e-05
9.06771e-05
0.000106446
0.000124158
0.000142286
0.000159423
0.00017631
0.000195108
0.000217548
0.000243615
0.000272323
0.000303244
0.000335771
0.000370241
0.000407058
0.000442044
0.000470848
0.000490695
0.000497758
0.000493292
0.00047617
0.000463645
0.000452972
0.000440023
0.000421411
0.000394944
0.000353155
0.000274754
0.000144145
2.95293e-05
4.51146e-05
5.59692e-05
6.2426e-05
6.7135e-05
7.29366e-05
8.21131e-05
9.56179e-05
0.000112155
0.000129794
0.000147767
0.000166879
0.000188453
0.000212994
0.000240434
0.000270868
0.000304324
0.000340341
0.000377347
0.000413024
0.00044698
0.000476578
0.000498745
0.000509443
0.00050916
0.000496291
0.000478016
0.00046857
0.000462575
0.000455247
0.000441276
0.000418035
0.000377966
0.000296266
0.000152059
2.66938e-05
4.27958e-05
5.48029e-05
6.26612e-05
6.91959e-05
7.68239e-05
8.76354e-05
0.000102144
0.000118912
0.000137012
0.000156865
0.000179315
0.000205026
0.000234321
0.000267104
0.000303036
0.000341939
0.000381468
0.000418791
0.000451822
0.00048012
0.000502522
0.000516351
0.000519261
0.000511679
0.00049238
0.000474938
0.000469604
0.000470666
0.000471401
0.000463844
0.000444591
0.000406849
0.000323074
0.000166938
2.3979e-05
4.04894e-05
5.34459e-05
6.27508e-05
7.04918e-05
7.94556e-05
9.14055e-05
0.000106382
0.000123675
0.000143456
0.000166446
0.000193081
0.000223444
0.000257528
0.000295343
0.00033585
0.00037686
0.000416015
0.000451033
0.000479829
0.000501527
0.000515864
0.000521715
0.000518252
0.000503767
0.000480001
0.000465729
0.000467537
0.000478109
0.00048889
0.000488779
0.000472587
0.000435894
0.000351902
0.000187543
2.16352e-05
3.89433e-05
5.31072e-05
6.38874e-05
7.35732e-05
8.44214e-05
9.78737e-05
0.000114096
0.000133234
0.000155772
0.00018205
0.000212147
0.00024612
0.000283944
0.000324111
0.000364819
0.000403804
0.000438715
0.000467625
0.000489307
0.000503274
0.000509061
0.000506533
0.000495126
0.000474729
0.000455739
0.000455099
0.0004687
0.000492517
0.000514168
0.000518494
0.00050263
0.000464747
0.000379322
0.00020899
1.91662e-05
3.72033e-05
5.2716e-05
6.51294e-05
7.6207e-05
8.81197e-05
0.0001022
0.00011908
0.00013934
0.000163457
0.00019161
0.000223849
0.000259868
0.000298168
0.000337067
0.000374509
0.000408372
0.00043719
0.000458525
0.000471495
0.000475971
0.000472895
0.000462978
0.000447244
0.000433845
0.000437084
0.000455764
0.000489027
0.000524526
0.000547625
0.000549458
0.000530966
0.00048842
0.00039544
0.000214988
1.7858e-05
3.67481e-05
5.32927e-05
6.74696e-05
8.01287e-05
9.32024e-05
0.000108263
0.000126329
0.000148088
0.000173877
0.000203734
0.00023723
0.000272819
0.000308791
0.000343145
0.000374019
0.000399326
0.000416924
0.000426821
0.000429131
0.000425132
0.000416608
0.00040644
0.000403142
0.000416492
0.000448593
0.000493582
0.000537841
0.000570989
0.000587126
0.000583174
0.000559615
0.000511644
0.000408405
0.00021429
1.76675e-05
3.70943e-05
5.48766e-05
7.03615e-05
8.42839e-05
9.83919e-05
0.000114444
0.000133742
0.000157049
0.000184513
0.000215681
0.000248933
0.000282327
0.000313668
0.000342092
0.000364726
0.000380369
0.000388574
0.000389837
0.000386007
0.000379401
0.000374546
0.000378428
0.000401319
0.000441392
0.000489426
0.000536886
0.000578039
0.000607901
0.000620202
0.000613764
0.00058839
0.000535489
0.000421144
0.000212348
1.81732e-05
3.84675e-05
5.72381e-05
7.39889e-05
8.92655e-05
0.000104772
0.000122387
0.000143303
0.000167781
0.000195339
0.000224841
0.000254398
0.000282331
0.000307661
0.000327132
0.000340637
0.000347937
0.000349569
0.000347342
0.000343449
0.000341809
0.000348106
0.000367121
0.00040255
0.000449446
0.000500919
0.000552996
0.000600895
0.000636124
0.000650812
0.000645761
0.000620247
0.000564756
0.000442599
0.000221056
1.84024e-05
4.00063e-05
6.00527e-05
7.81044e-05
9.4664e-05
0.000111263
0.000129578
0.000150647
0.0001745
0.000200134
0.000226943
0.000253623
0.000277226
0.000295036
0.000307106
0.000313541
0.000315144
0.000313692
0.000311707
0.000311819
0.000316694
0.000330597
0.000357955
0.000401354
0.000454218
0.000511049
0.000568079
0.000622584
0.000662365
0.000681037
0.000677963
0.000653932
0.000599438
0.000474892
0.00024333
1.76462e-05
4.04006e-05
6.15867e-05
8.06818e-05
9.79873e-05
0.000114881
0.000132885
0.000152483
0.000174233
0.000197501
0.000220384
0.000240373
0.000256592
0.000268836
0.000277122
0.000282034
0.000284871
0.000287419
0.000291776
0.000300634
0.000316195
0.000341092
0.000378125
0.000422057
0.00047083
0.000527846
0.000593422
0.000653448
0.000692986
0.000711667
0.000708594
0.00068383
0.00062699
0.000495422
0.000246391
1.68455e-05
4.06118e-05
6.25512e-05
8.2085e-05
9.94658e-05
0.00011591
0.00013272
0.000150731
0.000169447
0.000188499
0.000206893
0.000223445
0.000237401
0.000248581
0.000257427
0.000264886
0.000272186
0.000280573
0.000291313
0.000306027
0.000327135
0.000354401
0.000385566
0.00042105
0.000465997
0.000525675
0.000598099
0.000668104
0.000722816
0.00074416
0.000742799
0.000717641
0.000657401
0.000517486
0.00024814
1.61895e-05
4.03039e-05
6.24773e-05
8.21735e-05
9.94654e-05
0.000115627
0.000132081
0.000148899
0.000165947
0.000182799
0.000198812
0.000213443
0.000226411
0.000237733
0.000247726
0.000256884
0.000265662
0.000274441
0.000283776
0.000294209
0.000303538
0.000309951
0.000318341
0.000340358
0.000379415
0.000443635
0.00054374
0.000647497
0.000727189
0.000771788
0.000778687
0.000760547
0.000705207
0.000566937
0.000291857
1.33358e-05
3.81543e-05
6.11916e-05
8.10264e-05
9.81447e-05
0.000113718
0.000128582
0.000143608
0.000158773
0.000173789
0.00018823
0.000201716
0.000214039
0.000225181
0.000235246
0.000244373
0.000252626
0.00026006
0.000266872
0.000273594
0.000280241
0.000287356
0.000295797
0.000302016
0.000309973
0.000340757
0.000422456
0.000557998
0.000690793
0.000775416
0.000803321
0.000798423
0.00075825
0.000647598
0.00040832
9.61837e-06
3.44558e-05
5.76093e-05
7.76954e-05
9.4761e-05
0.000109878
0.000124136
0.000138141
0.000152017
0.000165633
0.000178735
0.000191078
0.000202523
0.000213049
0.000222714
0.000231626
0.000239917
0.000247876
0.000255157
0.000261726
0.000267665
0.00027348
0.000280242
0.00028884
0.000302757
0.000338377
0.000419288
0.00054408
0.000679537
0.00077671
0.000818772
0.000814527
0.00077551
0.000671476
0.000475393
7.15958e-06
3.14795e-05
5.4328e-05
7.46995e-05
9.21484e-05
0.000107352
0.000121371
0.000134836
0.000147902
0.000160488
0.000172422
0.000183549
0.000193762
0.000202991
0.000211215
0.000218425
0.000224588
0.000229759
0.000234176
0.000237818
0.000241728
0.000249365
0.000270993
0.000314585
0.000384813
0.000480373
0.000595281
0.000701834
0.000786715
0.000838388
0.000851517
0.000833698
0.000781691
0.000674049
0.000474968
6.34129e-06
3.09425e-05
5.36326e-05
7.37667e-05
9.09083e-05
0.000105608
0.000118896
0.000131452
0.000143496
0.00015503
0.000166042
0.000176431
0.000186187
0.00019539
0.000204119
0.000212721
0.000221679
0.000231632
0.000243417
0.000267883
0.000315434
0.000386815
0.000472698
0.000562246
0.00064919
0.000725945
0.000784344
0.000832262
0.000864337
0.000877309
0.000870717
0.000839048
0.000779057
0.000652167
0.000427075
6.86607e-06
3.15516e-05
5.41563e-05
7.41404e-05
9.12148e-05
0.000105913
0.000119177
0.000131701
0.000143726
0.00015525
0.000166099
0.000176326
0.00018615
0.000196242
0.000206915
0.000221314
0.000245199
0.000281898
0.000334267
0.000395993
0.000461477
0.000528932
0.000590406
0.000647411
0.000700499
0.000751588
0.000802256
0.000846203
0.000876726
0.000887695
0.000877995
0.000844142
0.000777331
0.000632681
0.000382914
8.09327e-06
3.41625e-05
5.74561e-05
7.74074e-05
9.41189e-05
0.000108462
0.000121431
0.000133639
0.000145413
0.000157012
0.000168847
0.000181726
0.000196887
0.000215652
0.000240404
0.000271924
0.000309237
0.000352132
0.000397343
0.000444025
0.000493825
0.000545152
0.000598555
0.000656744
0.000720866
0.000787824
0.000848286
0.000893396
0.00091678
0.000917967
0.000899207
0.000856686
0.000779882
0.000629495
0.000381555
9.40914e-06
3.66172e-05
6.06146e-05
8.10011e-05
9.84025e-05
0.000113737
0.000127752
0.000140978
0.000153921
0.00016708
0.000181378
0.000197998
0.000218115
0.000242775
0.000271909
0.000304654
0.000340695
0.000378863
0.000418997
0.000463509
0.000512563
0.000566419
0.000625761
0.000689624
0.000755187
0.000815309
0.000864919
0.000900934
0.000920575
0.000920895
0.000902334
0.000858985
0.000780598
0.00062697
0.000389034
1.10471e-05
4.01803e-05
6.5713e-05
8.67356e-05
0.000103637
0.00011765
0.000130395
0.00014385
0.000158219
0.000175941
0.000198549
0.000225839
0.000257087
0.00029072
0.000325904
0.000361913
0.000397015
0.000432641
0.000473518
0.000520195
0.000573103
0.00063159
0.000692929
0.000755589
0.000816076
0.000869141
0.000911021
0.000938878
0.00094918
0.000941516
0.000910818
0.000861984
0.000778196
0.000617258
0.000380807
1.53137e-05
4.67477e-05
7.29035e-05
9.35507e-05
0.000111827
0.000130888
0.000152594
0.000177552
0.000206435
0.000237334
0.000268671
0.000298711
0.000325042
0.000348034
0.000369015
0.000388635
0.000412123
0.000442481
0.000481656
0.000530776
0.000589443
0.000657169
0.000730849
0.00080058
0.000860556
0.000908398
0.000940413
0.000957318
0.000957699
0.000943113
0.00091065
0.000857019
0.000762477
0.000587061
0.000331799
2.27653e-05
5.251e-05
8.32717e-05
0.000113268
0.000142732
0.000172341
0.000201918
0.000230152
0.000255411
0.000276173
0.000292156
0.000304164
0.000312838
0.000311854
0.000312665
0.000324055
0.000350414
0.000389277
0.000441747
0.000506173
0.00057984
0.000657047
0.000733624
0.000805064
0.0008671
0.000916939
0.000953351
0.000970152
0.000969464
0.000950928
0.000915003
0.000857669
0.000760196
0.000583642
0.000319895
3.51768e-05
7.47004e-05
0.000112593
0.000146244
0.000176268
0.000203051
0.000226013
0.00024467
0.000258869
0.000265836
0.000261608
0.000242343
0.000217633
0.000207183
0.000207084
0.000219976
0.000244682
0.000281835
0.000334185
0.000402891
0.00048719
0.000584416
0.000681461
0.000773543
0.000852786
0.000913482
0.000953637
0.000974236
0.000976308
0.000961892
0.000927192
0.00086806
0.000764617
0.000585579
0.000329804
2.98747e-05
7.30214e-05
0.000111765
0.000146321
0.000175625
0.000201822
0.000222692
0.000236835
0.000241603
0.00023296
0.000216958
0.000198711
0.000186062
0.000183697
0.000187528
0.000194376
0.000209421
0.000235393
0.000275009
0.000329332
0.000399566
0.000482803
0.000583713
0.000689506
0.000788611
0.000871319
0.000931478
0.000967457
0.000976238
0.000965559
0.000936605
0.00088622
0.000795453
0.000634194
0.000391639
1.27189e-05
5.69918e-05
0.000103911
0.000140929
0.000168983
0.000190113
0.000206846
0.000218595
0.000224494
0.000223888
0.000216047
0.00020618
0.000197352
0.000189776
0.000188943
0.000192501
0.000206625
0.000232041
0.000271204
0.000324754
0.000392832
0.000475757
0.000571185
0.000673062
0.000771484
0.00085525
0.000916209
0.000953416
0.000969548
0.000964048
0.000937148
0.000887176
0.000800812
0.000654383
0.000466992
3.90218e-06
3.73065e-05
7.26004e-05
0.000104959
0.000131832
0.000153242
0.00016998
0.000181907
0.000188635
0.000190029
0.000188157
0.000181848
0.000177288
0.000178231
0.0001869
0.00020561
0.000236934
0.000282056
0.000338886
0.000405635
0.000480699
0.000560042
0.000639924
0.000718376
0.000792403
0.000860774
0.000915234
0.000951911
0.000965493
0.000958193
0.000929613
0.000880676
0.00079771
0.000653999
0.000471055
6.80071e-06
3.93685e-05
6.72851e-05
8.96876e-05
0.000106681
0.000118996
0.000127471
0.000132336
0.000134545
0.000136493
0.000140482
0.00014995
0.000168824
0.000201041
0.000246017
0.000298571
0.000355702
0.000416772
0.000481579
0.000549279
0.000619437
0.000689874
0.000758242
0.00082006
0.000874347
0.000917716
0.000949892
0.000964785
0.000963739
0.00094853
0.000913652
0.000859677
0.00077216
0.000621734
0.000438918
5.66366e-06
2.96392e-05
4.76279e-05
6.16133e-05
7.37031e-05
8.54448e-05
9.81567e-05
0.000113009
0.00013079
0.000152711
0.000179688
0.000211203
0.000244475
0.000278934
0.000317279
0.000359969
0.000407932
0.000462312
0.000521787
0.000583904
0.000645922
0.000708562
0.000770231
0.000828684
0.000880064
0.000922151
0.000952086
0.000966122
0.000962245
0.000940595
0.000903836
0.000847244
0.000755065
0.00059784
0.000375892
3.32358e-06
2.16358e-05
3.80858e-05
5.47449e-05
7.25572e-05
9.1001e-05
0.000110054
0.000129817
0.000150494
0.000172252
0.000195451
0.00022067
0.000248924
0.000281275
0.000318312
0.000360667
0.000409266
0.000464283
0.000524119
0.000587461
0.000653603
0.000719997
0.000784233
0.000843937
0.000896988
0.000937003
0.000960579
0.000969597
0.000962373
0.00093788
0.000897392
0.000839348
0.000750644
0.000596673
0.00036854
1.70022e-06
1.63998e-05
3.14255e-05
4.80084e-05
6.59149e-05
8.44859e-05
0.00010278
0.000121006
0.000139975
0.000159992
0.000180994
0.000202942
0.000225823
0.000251413
0.000283105
0.000323391
0.000372816
0.000429913
0.000493831
0.000563549
0.000637654
0.000711131
0.000780812
0.000843456
0.000896843
0.000937003
0.000960481
0.000966293
0.000955871
0.000930073
0.000890339
0.000834772
0.000750543
0.000600808
0.000373774
1.8643e-06
1.76374e-05
3.36049e-05
4.97898e-05
6.64429e-05
8.35318e-05
0.000100651
0.000118189
0.000136726
0.000156356
0.000177182
0.000199271
0.000222599
0.000248424
0.000279794
0.000319057
0.000366808
0.000423042
0.000486945
0.000556015
0.000627275
0.000701815
0.000773109
0.000837001
0.000887982
0.000921821
0.00093774
0.000939443
0.000929079
0.000908326
0.000876067
0.000830307
0.000759443
0.000627598
0.000408333
4.64881e-06
3.044e-05
5.37415e-05
7.293e-05
8.94107e-05
0.000105106
0.000121074
0.000137688
0.000155228
0.00017397
0.000194149
0.000215923
0.000239318
0.000265544
0.00029712
0.000335694
0.000382178
0.000436347
0.000495203
0.000557498
0.000621601
0.000682887
0.00073979
0.000791321
0.000834799
0.000867529
0.000889406
0.000900439
0.000900791
0.000890454
0.000866152
0.00082725
0.000763134
0.000639206
0.000452206
9.45757e-06
5.20895e-05
8.61624e-05
0.000110106
0.000129463
0.000147751
0.000165828
0.000184286
0.000203598
0.000224143
0.000246197
0.000269873
0.000295471
0.000324326
0.000358225
0.000397737
0.000441994
0.000489572
0.000538387
0.000586511
0.000634646
0.000684145
0.000733557
0.000778717
0.000815581
0.00084486
0.000867099
0.000882584
0.000886452
0.000879513
0.000858569
0.000823161
0.000760784
0.000639901
0.000458869
1.3886e-05
7.29316e-05
0.000116582
0.000145349
0.000168087
0.00018947
0.000210436
0.000231686
0.000253744
0.000276958
0.000301528
0.000327476
0.000354613
0.00038414
0.000417805
0.000455225
0.000495203
0.000536578
0.000578293
0.00061998
0.000661154
0.000701688
0.000741038
0.000778641
0.000813181
0.000841948
0.000863927
0.00087853
0.000885567
0.000879949
0.000856625
0.000816287
0.000748722
0.000623096
0.000443279
1.5985e-05
8.59629e-05
0.000137725
0.000170818
0.000196761
0.000221516
0.000245752
0.000269987
0.000294648
0.00032005
0.000346383
0.000373687
0.000401899
0.000431785
0.000465074
0.000502198
0.000541524
0.000581344
0.000620283
0.000658147
0.00069521
0.000732036
0.000768167
0.000802538
0.000834076
0.000861526
0.000882624
0.000894512
0.000894073
0.000881644
0.000854786
0.000810973
0.000738262
0.000603572
0.000407388
1.58225e-05
8.81233e-05
0.00014423
0.000182222
0.000212439
0.000241141
0.000268887
0.000296131
0.000323225
0.000350451
0.000378002
0.000405963
0.000434292
0.000463601
0.000495686
0.000531266
0.000568746
0.000606761
0.000644648
0.000682669
0.000720981
0.000759645
0.000797452
0.000832495
0.000862685
0.000886011
0.000900976
0.000906198
0.000901173
0.000884163
0.000855243
0.000810263
0.000735206
0.000596071
0.000386045
1.43039e-05
8.63766e-05
0.000143262
0.000182792
0.000213724
0.000242758
0.000271325
0.000299548
0.000327575
0.000355552
0.000383594
0.000411765
0.000440062
0.000468989
0.000500525
0.000535911
0.000573664
0.000612241
0.000650741
0.000689552
0.000728763
0.000767564
0.000804985
0.000839042
0.000868011
0.00089064
0.000905128
0.000909628
0.000903304
0.000885495
0.000855234
0.000809744
0.000733672
0.000594858
0.000382229
1.19535e-05
7.86502e-05
0.00013377
0.000176106
0.000208863
0.000238518
0.000267977
0.000297112
0.000325914
0.000354451
0.00038281
0.000411091
0.000439327
0.000468281
0.000500067
0.000535708
0.000573668
0.000612526
0.000652159
0.000693039
0.000735386
0.000777404
0.000816768
0.000851868
0.000881398
0.000903021
0.000915493
0.000917943
0.000909438
0.000889126
0.000856747
0.000810089
0.000733561
0.000595057
0.000384177
9.56118e-06
6.64572e-05
0.000115602
0.000156823
0.0001894
0.000218638
0.000248056
0.0002774
0.000306542
0.000335466
0.000364222
0.000392876
0.000421493
0.000452004
0.00048678
0.000525103
0.000565222
0.000606331
0.000648497
0.000691741
0.000735359
0.000777596
0.000817565
0.000853601
0.000883295
0.000904816
0.000916857
0.00091906
0.00091048
0.000890484
0.000858849
0.00081151
0.000733814
0.000595263
0.000391185
7.82779e-06
5.59571e-05
9.8894e-05
0.000136963
0.000168886
0.000197388
0.000225597
0.000254132
0.000282781
0.000311466
0.000340216
0.000369115
0.000399793
0.000434605
0.000473397
0.000514318
0.000556301
0.000599323
0.000643842
0.000689531
0.000735371
0.00078111
0.000824653
0.000862777
0.000892521
0.000913065
0.000922891
0.000923164
0.000913621
0.000893194
0.000861076
0.000813342
0.00073518
0.000597114
0.000400775
6.88705e-06
4.89247e-05
8.70349e-05
0.000121969
0.000153155
0.000181122
0.000208441
0.00023654
0.000264947
0.000293463
0.000322235
0.000353327
0.000388436
0.000427242
0.000468058
0.00050984
0.000552682
0.000596842
0.000642415
0.00069024
0.000740225
0.000788789
0.000832127
0.000868251
0.000896583
0.000915484
0.000923764
0.000923045
0.000912726
0.000892922
0.000859755
0.000810609
0.000731324
0.000597126
0.000411884
6.78075e-06
4.71914e-05
8.35671e-05
0.000116182
0.000145188
0.000171709
0.000197837
0.000224944
0.000253286
0.000282894
0.000314706
0.000349353
0.000386896
0.0004265
0.000467292
0.000508982
0.000552018
0.000597523
0.000646555
0.000696672
0.000744898
0.000790954
0.000832435
0.000866731
0.000892852
0.000910713
0.00091955
0.000919029
0.00090901
0.000888513
0.000855643
0.000806976
0.000728758
0.00059766
0.000422799
7.29098e-06
4.77012e-05
8.4092e-05
0.000116293
0.000144932
0.000171282
0.000197294
0.000224117
0.000252204
0.00028262
0.000316267
0.000353023
0.000391929
0.000431935
0.000472577
0.000514634
0.000559142
0.000606196
0.000653544
0.000700011
0.000744682
0.000786583
0.000824882
0.000858874
0.000886731
0.000905351
0.000913964
0.000913797
0.000904989
0.000885052
0.000851636
0.000801944
0.000722873
0.00059214
0.000424549
8.64925e-06
5.35092e-05
9.3215e-05
0.000126736
0.000155388
0.000181688
0.000207903
0.000235376
0.000265094
0.000297748
0.000333129
0.000370433
0.000408735
0.000447761
0.000487883
0.000529208
0.000571701
0.000615352
0.000658963
0.000702234
0.000744644
0.000785655
0.000823982
0.000858104
0.000886131
0.000903737
0.000910695
0.000908384
0.000898629
0.000877948
0.000844074
0.000793824
0.000713926
0.000583096
0.000420456
1.04908e-05
6.21301e-05
0.000107145
0.000144266
0.000174946
0.000202805
0.000230576
0.000259241
0.000289589
0.000322127
0.000356599
0.000392586
0.000429806
0.000468139
0.000507424
0.000547394
0.000587714
0.000628318
0.000668885
0.000709047
0.000748904
0.000788372
0.000826446
0.000860507
0.000886463
0.000902954
0.000908532
0.000906784
0.000896236
0.000874421
0.000839297
0.000787108
0.00070431
0.000570609
0.000405162
1.1475e-05
6.53834e-05
0.000114428
0.000156231
0.00019019
0.000220185
0.000250084
0.000280974
0.000312871
0.000345983
0.000380681
0.000416859
0.000454158
0.00049238
0.000531277
0.000570436
0.000609349
0.000647737
0.000686152
0.000724792
0.00076451
0.000805034
0.000843035
0.000873421
0.000894655
0.000906817
0.000908752
0.000903676
0.000890967
0.000867809
0.000831998
0.000779087
0.000695139
0.000560068
0.000387968
1.15696e-05
6.52312e-05
0.00011491
0.000159573
0.000197591
0.000231113
0.000263574
0.000296952
0.000331656
0.00036756
0.000404448
0.000442066
0.000480119
0.000518355
0.000556905
0.000595581
0.000633694
0.000671113
0.000708656
0.000747219
0.000787862
0.000829513
0.000867195
0.000895393
0.000911016
0.000912828
0.000908857
0.000900333
0.000886067
0.00086286
0.000828055
0.000776832
0.00069486
0.000559052
0.000374256
1.12399e-05
6.1488e-05
0.000110598
0.000157047
0.000197802
0.000232843
0.000266939
0.000303021
0.000340294
0.000378609
0.000417859
0.000457871
0.000498369
0.000538954
0.000579145
0.000618505
0.000656785
0.000693487
0.000729834
0.000768365
0.000809435
0.000849981
0.000884263
0.000905189
0.000912536
0.000908984
0.000898884
0.000888948
0.000875755
0.000855101
0.000823629
0.000776439
0.000695403
0.000560332
0.000372534
1.15024e-05
5.87444e-05
0.000105526
0.000151911
0.000194396
0.00023118
0.00026698
0.000305079
0.000344744
0.000385282
0.000426776
0.000469129
0.000512195
0.000555512
0.000598201
0.000639333
0.000678005
0.000713645
0.000748842
0.000787531
0.000827608
0.000864069
0.000891315
0.000907827
0.000909256
0.000898969
0.000884975
0.000874292
0.000863469
0.000846644
0.00081942
0.000776621
0.000702376
0.000572249
0.000376832
1.25971e-05
5.88922e-05
0.000104916
0.000149736
0.000190688
0.000228209
0.000266124
0.000305994
0.000347706
0.000390916
0.000434775
0.000478801
0.000522663
0.000565995
0.000608307
0.000648982
0.000687271
0.000722259
0.000756479
0.000793014
0.000831043
0.000864724
0.000887682
0.000894218
0.000887024
0.000871105
0.000855442
0.000847706
0.000843041
0.000833351
0.000813396
0.000778752
0.000714721
0.000592639
0.000394509
1.4509e-05
6.31664e-05
0.000109611
0.000152015
0.000189893
0.000226078
0.000263992
0.000304401
0.000347481
0.00039134
0.00043549
0.000479623
0.000523444
0.000566735
0.000609065
0.000649779
0.000688184
0.000723432
0.000757405
0.000792184
0.000824564
0.000848713
0.00086179
0.000862168
0.000850073
0.000831305
0.000816947
0.000815865
0.000819455
0.000818923
0.000807009
0.000780334
0.000726349
0.00061349
0.00041931
1.71969e-05
7.25249e-05
0.000121953
0.000162402
0.00019796
0.000233343
0.000270427
0.000309224
0.00035
0.000393149
0.000436953
0.00048035
0.000523351
0.000565769
0.000607112
0.000646975
0.000684518
0.000718686
0.000750164
0.000779927
0.000805305
0.000822258
0.000828375
0.000822632
0.00080619
0.000786906
0.000777081
0.000780142
0.000792284
0.000801509
0.000798324
0.000778621
0.000733429
0.000630653