/*--------------------------------*- C++ -*----------------------------------*\
| =========                 |                                                 |
| \\      /  F ield         | OpenFOAM: The Open Source CFD Toolbox           |
|  \\    /   O peration     | Version:  v1906                                 |
|   \\  /    A nd           | Web:      www.OpenFOAM.com                      |
|    \\/     M anipulation  |                                                 |
\*---------------------------------------------------------------------------*/
FoamFile
{
    version     2.0;
    format      ascii;
    class       volScalarField;
    location    "900";
    object      nut;
}
// * * * * * * * * * * * * * * * * * * * * * * * * * * * * * * * * * * * * * //

dimensions      [0 2 -1 0 0 0 0];


internalField   nonuniform List<scalar> 
78750
(
5.78508e-08
2.2175e-06
2.96033e-06
3.3722e-06
3.47332e-06
3.5716e-06
3.67236e-06
3.78374e-06
3.90751e-06
4.03561e-06
4.16588e-06
4.29888e-06
4.42738e-06
4.5513e-06
4.67143e-06
4.78782e-06
4.90054e-06
5.00894e-06
5.11227e-06
5.20928e-06
5.29789e-06
5.37541e-06
5.43947e-06
5.48893e-06
5.52403e-06
5.53171e-06
5.53112e-06
5.24981e-06
4.73117e-06
3.9909e-06
3.38207e-06
2.74083e-06
2.12642e-06
1.32024e-06
2.32442e-08
9.81362e-08
3.40619e-06
3.20755e-06
3.66234e-06
5.34452e-06
7.91126e-06
1.07764e-05
1.06722e-05
1.05215e-05
1.03228e-05
1.00826e-05
9.81797e-06
9.56173e-06
9.33773e-06
9.17976e-06
9.04303e-06
8.10057e-06
7.20971e-06
6.37845e-06
6.01909e-06
6.47321e-06
8.06186e-06
1.14383e-05
1.60815e-05
1.80303e-05
1.19235e-05
8.62636e-06
8.47139e-06
9.33521e-06
9.71663e-06
9.74125e-06
1.0666e-05
8.94239e-06
3.0317e-06
6.89959e-08
1.12925e-07
3.41513e-06
2.92671e-06
2.54117e-06
3.0814e-06
4.09788e-06
5.12267e-06
5.92402e-06
6.90584e-06
7.83155e-06
7.84098e-06
7.54386e-06
7.28064e-06
7.05768e-06
6.88687e-06
6.79269e-06
6.80981e-06
6.52276e-06
5.35537e-06
5.4449e-06
6.71617e-06
1.00417e-05
1.5392e-05
1.73684e-05
1.91303e-05
1.13131e-05
7.87585e-06
7.05832e-06
7.26947e-06
8.32181e-06
9.91043e-06
1.20085e-05
1.24832e-05
3.50812e-06
7.77185e-08
1.23221e-07
2.78974e-06
3.32801e-06
2.22201e-06
2.26682e-06
2.6711e-06
3.32676e-06
4.24632e-06
5.36075e-06
6.57471e-06
6.63272e-06
6.31822e-06
6.06618e-06
5.89195e-06
5.82785e-06
5.88754e-06
5.81551e-06
4.8012e-06
4.23941e-06
4.53237e-06
6.45083e-06
1.12701e-05
1.47289e-05
1.17703e-05
1.06308e-05
9.16277e-06
8.07357e-06
8.14415e-06
7.8917e-06
7.40602e-06
8.92632e-06
1.44245e-05
1.15464e-05
3.20416e-06
7.99701e-08
1.23666e-07
2.46761e-06
3.8075e-06
2.13012e-06
1.92368e-06
2.1027e-06
2.47567e-06
3.04388e-06
3.90062e-06
5.0661e-06
5.47574e-06
5.20526e-06
5.03986e-06
4.97959e-06
5.0095e-06
4.63004e-06
3.62147e-06
3.10528e-06
3.24165e-06
4.54676e-06
8.76485e-06
1.46943e-05
1.4803e-05
1.15777e-05
1.07571e-05
1.05123e-05
9.38317e-06
8.1754e-06
7.16881e-06
6.45924e-06
6.47958e-06
8.5933e-06
1.60998e-05
3.27577e-06
1.16342e-07
1.23923e-07
2.24877e-06
4.5084e-06
2.15278e-06
1.76414e-06
1.81091e-06
2.04585e-06
2.48442e-06
3.2537e-06
4.6284e-06
5.22391e-06
5.0336e-06
4.96501e-06
4.99601e-06
4.96846e-06
3.97793e-06
3.28525e-06
2.9615e-06
3.29505e-06
5.20264e-06
1.13494e-05
1.43478e-05
1.32854e-05
1.16162e-05
1.10633e-05
1.01902e-05
1.10251e-05
1.03574e-05
7.40396e-06
5.3883e-06
4.65363e-06
6.04208e-06
1.50038e-05
4.51516e-06
1.69319e-07
1.19937e-07
2.08571e-06
5.36604e-06
2.2625e-06
1.67097e-06
1.60297e-06
1.71313e-06
2.00144e-06
2.61693e-06
3.88927e-06
5.21308e-06
5.23332e-06
5.35005e-06
5.5172e-06
5.61043e-06
4.13973e-06
3.16962e-06
2.81881e-06
3.32463e-06
5.60864e-06
1.06992e-05
1.22507e-05
9.73178e-06
8.77336e-06
8.15615e-06
7.50531e-06
7.56092e-06
8.82566e-06
7.43195e-06
5.23303e-06
4.47891e-06
5.09474e-06
9.66399e-06
5.49566e-06
1.78518e-07
1.1515e-07
1.94524e-06
6.35526e-06
2.54251e-06
1.7121e-06
1.53319e-06
1.56556e-06
1.71741e-06
2.07848e-06
2.97737e-06
4.76587e-06
4.80875e-06
4.90669e-06
5.09806e-06
5.38523e-06
5.13762e-06
3.89326e-06
3.50134e-06
4.16946e-06
6.77918e-06
1.15922e-05
1.27221e-05
9.42726e-06
8.07522e-06
7.66095e-06
7.75e-06
8.27434e-06
8.43745e-06
7.73893e-06
7.21506e-06
7.24937e-06
8.58489e-06
1.47172e-05
5.61023e-06
1.52857e-07
1.11058e-07
1.84791e-06
6.90926e-06
2.83214e-06
1.81573e-06
1.55628e-06
1.50459e-06
1.59404e-06
1.97893e-06
3.0107e-06
5.45558e-06
5.84484e-06
6.1768e-06
6.5035e-06
5.31436e-06
4.07521e-06
3.66281e-06
4.09389e-06
5.90329e-06
1.05372e-05
1.53864e-05
1.5658e-05
1.37186e-05
1.24782e-05
1.30304e-05
1.06687e-05
8.94654e-06
8.90909e-06
9.00292e-06
9.68287e-06
1.14229e-05
1.45909e-05
1.51672e-05
4.48936e-06
1.36111e-07
1.08067e-07
1.77796e-06
6.93124e-06
3.17321e-06
1.96223e-06
1.60989e-06
1.51629e-06
1.64558e-06
2.29229e-06
4.08306e-06
7.53647e-06
8.48445e-06
9.35937e-06
7.21057e-06
6.26185e-06
6.29125e-06
7.37997e-06
1.01398e-05
1.5825e-05
2.50963e-05
2.98361e-05
2.19244e-05
1.49334e-05
1.42066e-05
1.05435e-05
8.08697e-06
8.82844e-06
1.04638e-05
1.206e-05
1.41906e-05
1.69939e-05
1.82067e-05
1.27482e-05
3.82592e-06
1.37402e-07
1.05138e-07
1.74716e-06
7.00824e-06
3.46233e-06
2.10012e-06
1.70913e-06
1.67576e-06
2.04326e-06
3.38659e-06
7.58883e-06
1.12902e-05
1.31239e-05
1.02398e-05
8.90799e-06
9.02569e-06
1.05135e-05
1.40051e-05
2.07525e-05
3.13943e-05
3.53656e-05
2.55732e-05
1.60917e-05
1.37387e-05
9.87358e-06
8.88601e-06
1.17143e-05
1.44121e-05
1.64681e-05
1.84422e-05
2.06805e-05
2.31536e-05
2.33391e-05
1.45326e-05
3.90695e-06
1.6105e-07
1.01797e-07
1.71731e-06
7.08183e-06
3.73318e-06
2.23627e-06
1.84472e-06
1.92465e-06
2.63091e-06
5.11195e-06
1.24623e-05
1.44941e-05
1.37558e-05
1.12847e-05
1.09947e-05
1.25322e-05
1.63762e-05
2.39036e-05
3.43104e-05
3.67261e-05
2.56733e-05
1.50059e-05
1.36504e-05
1.14794e-05
1.08838e-05
1.41667e-05
1.65619e-05
1.77114e-05
1.84972e-05
1.97494e-05
2.18796e-05
2.48454e-05
2.57543e-05
1.58973e-05
4.08612e-06
1.92169e-07
9.67439e-08
1.684e-06
7.01111e-06
4.02051e-06
2.39191e-06
2.03573e-06
2.28594e-06
3.479e-06
7.50143e-06
1.49365e-05
1.71771e-05
1.40109e-05
1.22831e-05
1.30922e-05
1.65827e-05
2.44017e-05
3.44991e-05
3.67398e-05
2.30953e-05
1.51223e-05
1.50383e-05
1.36102e-05
1.2715e-05
1.50466e-05
1.67106e-05
1.76113e-05
1.82029e-05
1.92074e-05
2.09057e-05
2.32345e-05
2.57333e-05
2.58406e-05
1.5347e-05
4.1021e-06
2.09413e-07
9.0205e-08
1.6387e-06
6.75979e-06
4.5238e-06
2.6689e-06
2.28829e-06
2.64032e-06
4.19312e-06
9.28395e-06
1.65969e-05
1.57316e-05
1.26939e-05
1.27735e-05
1.60094e-05
2.43648e-05
3.45237e-05
3.68028e-05
2.37029e-05
1.56698e-05
1.58237e-05
1.68272e-05
1.49637e-05
1.54135e-05
1.73942e-05
1.86908e-05
1.93224e-05
2.00207e-05
2.10508e-05
2.25374e-05
2.46493e-05
2.70737e-05
2.69671e-05
1.56171e-05
4.17144e-06
2.18206e-07
8.40548e-08
1.59275e-06
6.48711e-06
4.96916e-06
2.92127e-06
2.57237e-06
3.17063e-06
5.62042e-06
1.27478e-05
1.66385e-05
1.36814e-05
1.34784e-05
1.68789e-05
2.56124e-05
3.46816e-05
3.57243e-05
2.45923e-05
1.77439e-05
1.6384e-05
1.8973e-05
1.88302e-05
1.80286e-05
2.03862e-05
2.11609e-05
2.0774e-05
2.03799e-05
2.03206e-05
2.09271e-05
2.25159e-05
2.51531e-05
2.8453e-05
2.86657e-05
1.61277e-05
4.30269e-06
2.34672e-07
7.7788e-08
1.52603e-06
5.90348e-06
5.62281e-06
3.31212e-06
2.99881e-06
3.9553e-06
7.52848e-06
1.48207e-05
1.61118e-05
1.54566e-05
1.81661e-05
2.59345e-05
3.38744e-05
3.36743e-05
2.48744e-05
1.91009e-05
1.81083e-05
2.10486e-05
2.19143e-05
2.11033e-05
2.30274e-05
2.40097e-05
2.35701e-05
2.24827e-05
2.12363e-05
2.03313e-05
2.01213e-05
2.15034e-05
2.45963e-05
2.86693e-05
2.9546e-05
1.66585e-05
4.45066e-06
2.55481e-07
7.01035e-08
1.44704e-06
5.18975e-06
6.89734e-06
4.04095e-06
3.58489e-06
4.79251e-06
8.86766e-06
1.51889e-05
1.699e-05
1.8934e-05
2.49217e-05
3.16688e-05
3.06282e-05
2.4008e-05
1.98941e-05
1.91848e-05
2.06896e-05
2.52435e-05
2.7125e-05
2.61911e-05
2.74878e-05
2.74675e-05
2.58231e-05
2.37004e-05
2.16685e-05
2.00796e-05
1.96695e-05
2.09249e-05
2.40935e-05
2.89008e-05
3.10021e-05
1.79335e-05
4.73276e-06
2.72577e-07
6.19939e-08
1.36843e-06
4.51668e-06
8.21431e-06
5.11026e-06
4.43536e-06
5.65185e-06
9.21499e-06
1.40919e-05
1.78427e-05
2.28025e-05
2.77997e-05
2.74333e-05
2.29733e-05
1.98281e-05
2.02099e-05
2.2821e-05
2.59861e-05
3.1099e-05
3.3123e-05
3.20105e-05
3.21901e-05
3.05172e-05
2.75976e-05
2.43193e-05
2.13318e-05
1.91131e-05
1.86227e-05
2.00844e-05
2.38587e-05
2.96797e-05
3.26125e-05
1.89135e-05
4.97957e-06
2.82483e-07
5.6202e-08
1.30217e-06
4.06793e-06
8.4826e-06
6.06581e-06
5.30856e-06
6.51757e-06
9.82347e-06
1.48731e-05
2.01551e-05
2.31218e-05
2.19514e-05
2.02314e-05
2.06928e-05
2.27538e-05
2.49064e-05
2.758e-05
3.13328e-05
3.78554e-05
4.08163e-05
3.87183e-05
3.70606e-05
3.35976e-05
2.91245e-05
2.46492e-05
2.07e-05
1.80485e-05
1.73903e-05
1.88087e-05
2.30308e-05
3.00783e-05
3.40221e-05
1.99314e-05
5.21763e-06
2.97834e-07
5.08073e-08
1.24985e-06
3.73706e-06
8.28575e-06
7.10864e-06
6.58291e-06
8.07573e-06
1.20028e-05
1.71864e-05
2.02177e-05
2.07188e-05
2.05557e-05
2.0956e-05
2.2254e-05
2.48167e-05
2.85778e-05
3.26675e-05
3.74772e-05
4.33525e-05
4.86424e-05
4.72446e-05
4.25274e-05
3.80289e-05
3.20281e-05
2.57999e-05
2.04318e-05
1.7003e-05
1.57599e-05
1.67995e-05
2.1089e-05
2.94853e-05
3.57886e-05
2.15983e-05
5.48437e-06
3.26714e-07
4.56419e-08
1.20573e-06
3.4732e-06
7.92175e-06
8.15068e-06
8.08677e-06
1.01875e-05
1.41109e-05
1.73463e-05
1.83743e-05
1.87711e-05
1.98484e-05
2.19267e-05
2.4979e-05
2.86946e-05
3.25983e-05
3.69664e-05
4.19715e-05
4.70928e-05
5.27599e-05
5.32696e-05
4.82368e-05
4.25572e-05
3.53132e-05
2.74248e-05
2.07369e-05
1.63159e-05
1.43258e-05
1.47534e-05
1.8452e-05
2.72666e-05
3.70362e-05
2.38306e-05
5.78275e-06
3.66748e-07
4.1182e-08
1.17463e-06
3.25863e-06
7.53537e-06
9.37539e-06
1.02503e-05
1.25116e-05
1.49873e-05
1.62616e-05
1.71052e-05
1.85507e-05
2.09512e-05
2.42241e-05
2.7965e-05
3.16478e-05
3.55288e-05
4.01085e-05
4.52076e-05
5.01059e-05
5.40013e-05
5.4269e-05
5.06419e-05
4.45406e-05
3.6211e-05
2.69321e-05
1.91196e-05
1.49056e-05
1.35161e-05
1.43427e-05
1.77666e-05
2.5428e-05
3.66126e-05
2.62873e-05
6.14284e-06
4.08544e-07
3.64836e-08
1.14694e-06
3.0664e-06
7.04299e-06
1.03914e-05
1.22714e-05
1.39731e-05
1.51178e-05
1.58299e-05
1.69686e-05
1.90554e-05
2.21144e-05
2.57531e-05
2.93813e-05
3.27654e-05
3.64676e-05
4.07033e-05
4.48728e-05
4.79927e-05
4.98553e-05
5.00705e-05
4.68739e-05
3.96008e-05
2.97404e-05
2.12993e-05
1.6321e-05
1.4005e-05
1.3681e-05
1.50469e-05
1.86666e-05
2.61876e-05
3.66872e-05
2.65838e-05
6.31752e-06
4.20217e-07
3.39941e-08
1.15716e-06
3.00156e-06
6.8312e-06
1.11685e-05
1.3507e-05
1.45648e-05
1.51111e-05
1.59694e-05
1.77041e-05
2.04479e-05
2.38954e-05
2.74533e-05
3.07612e-05
3.41229e-05
3.76996e-05
4.10635e-05
4.37661e-05
4.53961e-05
4.52229e-05
4.38698e-05
3.85424e-05
2.93766e-05
2.11885e-05
1.60093e-05
1.37158e-05
1.34294e-05
1.45386e-05
1.7164e-05
2.21055e-05
3.01364e-05
3.78394e-05
2.5667e-05
6.39033e-06
4.18957e-07
3.36315e-08
1.16931e-06
3.03755e-06
6.80364e-06
1.13421e-05
1.40102e-05
1.50588e-05
1.57527e-05
1.69853e-05
1.91554e-05
2.21781e-05
2.55496e-05
2.88187e-05
3.19659e-05
3.51436e-05
3.80898e-05
4.06387e-05
4.25445e-05
4.39248e-05
4.32217e-05
3.82077e-05
3.13681e-05
2.10894e-05
1.48553e-05
1.28051e-05
1.25431e-05
1.34939e-05
1.57878e-05
1.99855e-05
2.64854e-05
3.40324e-05
3.75558e-05
2.3066e-05
6.24075e-06
4.15504e-07
3.45939e-08
1.2081e-06
3.07382e-06
6.72006e-06
1.14291e-05
1.42908e-05
1.55758e-05
1.68053e-05
1.8755e-05
2.15114e-05
2.47048e-05
2.79032e-05
3.10114e-05
3.40912e-05
3.68909e-05
3.94284e-05
4.16308e-05
4.3219e-05
4.32272e-05
3.94909e-05
3.09835e-05
2.34876e-05
1.54159e-05
1.1747e-05
1.13964e-05
1.21915e-05
1.39949e-05
1.71868e-05
2.23181e-05
2.94741e-05
3.67394e-05
3.83684e-05
2.21154e-05
6.16542e-06
4.32598e-07
3.503e-08
1.22857e-06
3.13071e-06
6.80023e-06
1.16046e-05
1.49588e-05
1.66652e-05
1.78746e-05
1.94519e-05
2.17154e-05
2.46878e-05
2.79748e-05
3.11481e-05
3.38837e-05
3.61623e-05
3.79322e-05
3.9148e-05
3.95612e-05
3.79783e-05
3.22885e-05
2.34533e-05
1.74628e-05
1.26904e-05
1.08136e-05
1.1272e-05
1.25967e-05
1.47911e-05
1.82918e-05
2.36253e-05
3.13575e-05
3.98467e-05
4.21417e-05
2.36102e-05
6.41515e-06
4.76032e-07
3.35909e-08
1.24504e-06
3.14686e-06
6.82158e-06
1.17502e-05
1.54379e-05
1.78211e-05
1.95794e-05
2.11408e-05
2.24907e-05
2.41089e-05
2.61845e-05
2.82014e-05
3.00192e-05
3.15374e-05
3.27873e-05
3.37224e-05
3.37538e-05
3.10187e-05
2.44151e-05
1.91903e-05
1.38662e-05
1.08144e-05
1.03337e-05
1.11761e-05
1.30069e-05
1.58958e-05
2.02091e-05
2.61303e-05
3.36978e-05
4.17364e-05
4.38978e-05
2.43881e-05
6.60364e-06
4.82101e-07
3.20669e-08
1.28343e-06
3.24635e-06
6.88329e-06
1.16599e-05
1.54009e-05
1.78326e-05
1.98026e-05
2.16632e-05
2.35395e-05
2.50512e-05
2.65032e-05
2.83199e-05
3.03471e-05
3.24377e-05
3.44292e-05
3.58555e-05
3.51378e-05
2.96408e-05
2.09788e-05
1.64513e-05
1.13168e-05
9.1004e-06
9.4411e-06
1.02612e-05
1.19685e-05
1.54247e-05
2.18175e-05
3.03969e-05
3.77764e-05
4.29697e-05
4.21777e-05
2.34252e-05
6.58732e-06
4.85978e-07
3.08184e-08
1.2833e-06
3.29178e-06
7.02968e-06
1.15975e-05
1.50669e-05
1.76134e-05
1.98451e-05
2.2025e-05
2.45217e-05
2.72462e-05
2.99845e-05
3.28166e-05
3.58652e-05
3.92059e-05
4.2837e-05
4.53685e-05
4.59973e-05
3.49756e-05
2.16369e-05
1.52803e-05
1.0312e-05
7.97933e-06
7.61823e-06
8.09784e-06
9.66769e-06
1.26962e-05
1.7327e-05
2.52092e-05
3.75947e-05
4.30602e-05
4.06001e-05
2.26713e-05
6.43814e-06
5.71462e-07
2.53869e-08
1.2546e-06
3.20044e-06
6.80879e-06
1.13165e-05
1.48073e-05
1.73632e-05
1.96264e-05
2.18708e-05
2.42347e-05
2.68052e-05
2.95814e-05
3.2414e-05
3.51713e-05
3.77429e-05
3.99874e-05
4.15835e-05
4.12567e-05
3.64124e-05
2.89949e-05
2.03601e-05
1.3404e-05
1.13826e-05
9.30653e-06
7.09232e-06
6.47959e-06
7.34382e-06
1.08087e-05
1.78816e-05
2.72087e-05
3.84591e-05
4.42177e-05
2.56617e-05
6.84985e-06
7.97748e-07
1.83112e-08
1.20973e-06
2.9739e-06
6.31669e-06
1.09199e-05
1.46831e-05
1.7262e-05
1.93671e-05
2.13032e-05
2.31076e-05
2.49315e-05
2.65571e-05
2.77643e-05
2.8445e-05
2.8596e-05
2.83325e-05
2.77886e-05
2.70645e-05
2.56727e-05
2.21098e-05
1.7258e-05
1.35448e-05
1.51067e-05
1.44885e-05
1.00854e-05
8.21606e-06
8.05213e-06
9.00982e-06
1.14991e-05
1.72966e-05
2.91834e-05
4.32347e-05
2.97458e-05
7.30334e-06
9.27596e-07
1.36308e-08
1.2145e-06
2.82553e-06
5.81854e-06
1.0388e-05
1.45917e-05
1.7333e-05
1.92552e-05
2.07984e-05
2.20189e-05
2.30025e-05
2.35762e-05
2.38394e-05
2.37438e-05
2.33816e-05
2.2832e-05
2.21005e-05
2.10931e-05
1.95505e-05
1.71212e-05
1.43361e-05
1.4548e-05
1.39724e-05
1.24292e-05
1.25681e-05
1.26065e-05
1.26444e-05
1.29121e-05
1.42638e-05
1.79885e-05
2.59636e-05
3.73533e-05
3.17175e-05
7.47566e-06
9.2684e-07
1.2073e-08
1.33857e-06
2.98203e-06
5.80988e-06
1.02023e-05
1.45865e-05
1.75124e-05
1.942e-05
2.07691e-05
2.18316e-05
2.27141e-05
2.33554e-05
2.35232e-05
2.34754e-05
2.32541e-05
2.28837e-05
2.23325e-05
2.13598e-05
1.96475e-05
1.80696e-05
1.8121e-05
1.79917e-05
1.69955e-05
1.62085e-05
1.5931e-05
1.63087e-05
1.70964e-05
1.83015e-05
1.9705e-05
2.22605e-05
2.86537e-05
3.94632e-05
2.90281e-05
7.19256e-06
8.3484e-07
1.3072e-08
1.46972e-06
3.37271e-06
6.29481e-06
1.02869e-05
1.42828e-05
1.74823e-05
1.99555e-05
2.18887e-05
2.32465e-05
2.39869e-05
2.4403e-05
2.4767e-05
2.51191e-05
2.53137e-05
2.55584e-05
2.59789e-05
2.54078e-05
2.3702e-05
2.33927e-05
1.85687e-05
1.52942e-05
1.48633e-05
1.48085e-05
1.52378e-05
1.63637e-05
1.84968e-05
2.18685e-05
2.65012e-05
3.17801e-05
3.70212e-05
4.0762e-05
2.57328e-05
6.62351e-06
7.49546e-07
1.54081e-08
1.63076e-06
3.74209e-06
6.67806e-06
1.0413e-05
1.4124e-05
1.71136e-05
1.95831e-05
2.17394e-05
2.35175e-05
2.50327e-05
2.63246e-05
2.77512e-05
2.93484e-05
3.01937e-05
2.94898e-05
2.68809e-05
2.36044e-05
2.24363e-05
1.65298e-05
1.30743e-05
1.32185e-05
1.40709e-05
1.53632e-05
1.72028e-05
1.96996e-05
2.29414e-05
2.71027e-05
3.2113e-05
3.73214e-05
4.16648e-05
4.10446e-05
2.25358e-05
6.36085e-06
7.46938e-07
1.79129e-08
1.71909e-06
4.23387e-06
7.53121e-06
1.1133e-05
1.46868e-05
1.77227e-05
2.00586e-05
2.21108e-05
2.40249e-05
2.5525e-05
2.67014e-05
2.69866e-05
2.60255e-05
2.64184e-05
2.44197e-05
1.94742e-05
1.73133e-05
1.36948e-05
1.2056e-05
1.32165e-05
1.47189e-05
1.65712e-05
1.87542e-05
2.12993e-05
2.40741e-05
2.68613e-05
2.97976e-05
3.3779e-05
3.969e-05
4.40106e-05
4.15292e-05
2.16008e-05
6.22448e-06
7.61453e-07
2.10306e-08
1.80931e-06
4.58373e-06
8.08307e-06
1.12272e-05
1.37991e-05
1.61091e-05
1.81488e-05
2.01244e-05
2.19824e-05
2.34395e-05
2.4247e-05
2.369e-05
2.30071e-05
1.78388e-05
1.40516e-05
1.38066e-05
1.22044e-05
1.17777e-05
1.39745e-05
1.57883e-05
1.78225e-05
2.03689e-05
2.33439e-05
2.65039e-05
2.95626e-05
3.23241e-05
3.49381e-05
3.79667e-05
4.16253e-05
4.45445e-05
4.16131e-05
2.12453e-05
6.11998e-06
7.45243e-07
2.91513e-08
1.8671e-06
4.59886e-06
7.50424e-06
1.0197e-05
1.31788e-05
1.64359e-05
1.93926e-05
2.27374e-05
2.4768e-05
2.34664e-05
2.0902e-05
1.77751e-05
1.35491e-05
1.33546e-05
1.10297e-05
1.02118e-05
1.23568e-05
1.34983e-05
1.50712e-05
1.72307e-05
1.99946e-05
2.32247e-05
2.66472e-05
3.00759e-05
3.3341e-05
3.63965e-05
3.92336e-05
4.16999e-05
4.36845e-05
4.47673e-05
3.96558e-05
1.86645e-05
5.67877e-06
6.49781e-07
4.33314e-08
1.73329e-06
4.54101e-06
8.46923e-06
1.2801e-05
1.70922e-05
2.02565e-05
2.27829e-05
2.37039e-05
2.21418e-05
1.88337e-05
1.37891e-05
1.02498e-05
1.05186e-05
8.63342e-06
8.35561e-06
1.12006e-05
1.20267e-05
1.3772e-05
1.61544e-05
1.8958e-05
2.2016e-05
2.53157e-05
2.89977e-05
3.23087e-05
3.51586e-05
3.83274e-05
4.13005e-05
4.37444e-05
4.52022e-05
4.43113e-05
3.64486e-05
1.70596e-05
5.53922e-06
6.26644e-07
6.69427e-08
2.05989e-06
6.50506e-06
1.31177e-05
1.74834e-05
2.04307e-05
2.32211e-05
2.43042e-05
2.18658e-05
1.6557e-05
1.06066e-05
7.57557e-06
7.65062e-06
6.58711e-06
6.51053e-06
1.00307e-05
1.13883e-05
1.14784e-05
1.2283e-05
1.41973e-05
1.67852e-05
1.96993e-05
2.27426e-05
2.57986e-05
2.98197e-05
3.49755e-05
3.96058e-05
4.37814e-05
4.59635e-05
4.59227e-05
4.34548e-05
3.31837e-05
1.49739e-05
5.22105e-06
6.45764e-07
5.68563e-08
1.84157e-06
5.58511e-06
1.29215e-05
1.94766e-05
2.2995e-05
2.37878e-05
2.31158e-05
1.79005e-05
1.14562e-05
8.15653e-06
7.44229e-06
7.15141e-06
7.07385e-06
8.16267e-06
9.96899e-06
1.143e-05
1.14666e-05
1.2269e-05
1.3803e-05
1.54239e-05
1.71601e-05
1.96542e-05
2.29918e-05
2.72204e-05
3.19777e-05
3.68835e-05
4.09608e-05
4.49083e-05
4.71011e-05
4.45695e-05
3.38706e-05
1.51941e-05
5.37715e-06
7.653e-07
2.42119e-08
1.33624e-06
3.91521e-06
1.07547e-05
1.73517e-05
1.97418e-05
1.96025e-05
1.77045e-05
1.47318e-05
1.08967e-05
7.69039e-06
7.68708e-06
8.97766e-06
7.92036e-06
8.48065e-06
1.09721e-05
1.29486e-05
1.38262e-05
1.55919e-05
1.81832e-05
1.92055e-05
1.90398e-05
1.90344e-05
1.97269e-05
2.16583e-05
2.57418e-05
3.16037e-05
3.77717e-05
4.35482e-05
4.68858e-05
4.55911e-05
3.62556e-05
1.71982e-05
5.6302e-06
9.10391e-07
7.42936e-09
1.32603e-06
2.69389e-06
5.56824e-06
9.05996e-06
1.09202e-05
1.15025e-05
1.05587e-05
9.3786e-06
6.968e-06
7.04195e-06
7.50731e-06
6.39264e-06
7.65391e-06
1.05045e-05
1.30471e-05
1.43808e-05
1.7228e-05
2.06032e-05
2.17171e-05
2.25161e-05
2.37339e-05
2.44084e-05
2.50201e-05
2.55913e-05
2.567e-05
2.67781e-05
2.95767e-05
3.47305e-05
4.10573e-05
4.35149e-05
3.67316e-05
1.75918e-05
5.69656e-06
9.17851e-07
1.29473e-08
2.12932e-06
4.14139e-06
6.6427e-06
8.02869e-06
8.09281e-06
7.48587e-06
5.80984e-06
5.89552e-06
6.61869e-06
6.67896e-06
7.91132e-06
9.9843e-06
1.23638e-05
1.64401e-05
2.12345e-05
2.38482e-05
2.58387e-05
2.6111e-05
2.62282e-05
2.65806e-05
2.68952e-05
2.71608e-05
2.75388e-05
2.82059e-05
2.96177e-05
3.2284e-05
3.56906e-05
3.74362e-05
3.90379e-05
4.14077e-05
3.74277e-05
1.85196e-05
5.67508e-06
8.55514e-07
1.07828e-08
2.56994e-06
6.99718e-06
7.4964e-06
6.86121e-06
7.03243e-06
7.92961e-06
9.81538e-06
1.27004e-05
1.4507e-05
1.55621e-05
1.64499e-05
1.80475e-05
2.07287e-05
2.46089e-05
2.90715e-05
2.88272e-05
2.60233e-05
2.48301e-05
2.47596e-05
2.50861e-05
2.60168e-05
2.75152e-05
2.90908e-05
3.05448e-05
3.18186e-05
3.3328e-05
3.59021e-05
3.94391e-05
4.30967e-05
4.3831e-05
3.65023e-05
1.72671e-05
5.59752e-06
7.33504e-07
6.32781e-09
3.5497e-06
4.75365e-06
5.8621e-06
7.80594e-06
1.05657e-05
1.42762e-05
1.84451e-05
2.27117e-05
2.75736e-05
3.26977e-05
3.4346e-05
3.26175e-05
3.14187e-05
2.97172e-05
2.71298e-05
2.3722e-05
2.2086e-05
2.28712e-05
2.46045e-05
2.70341e-05
2.94033e-05
3.10793e-05
3.22498e-05
3.34078e-05
3.49346e-05
3.68966e-05
3.91329e-05
4.1384e-05
4.34544e-05
4.35768e-05
3.62074e-05
1.70498e-05
5.54284e-06
7.19428e-07
3.23714e-09
2.89937e-06
3.83971e-06
5.24033e-06
7.89403e-06
1.26633e-05
1.9304e-05
2.41966e-05
2.73068e-05
3.0448e-05
3.36044e-05
3.67654e-05
3.9925e-05
3.47916e-05
2.81714e-05
2.31796e-05
2.17415e-05
2.24149e-05
2.38175e-05
2.60931e-05
2.86493e-05
3.08471e-05
3.24305e-05
3.34797e-05
3.4426e-05
3.55699e-05
3.70327e-05
3.89727e-05
4.15036e-05
4.39255e-05
4.36495e-05
3.57429e-05
1.67779e-05
5.53484e-06
7.29513e-07
3.54954e-09
2.23579e-06
4.49574e-06
7.19088e-06
1.05766e-05
1.50979e-05
2.07372e-05
2.37687e-05
2.68357e-05
2.99457e-05
3.31062e-05
3.63173e-05
3.95667e-05
3.63334e-05
2.99557e-05
2.62102e-05
2.42492e-05
2.38035e-05
2.50607e-05
2.76018e-05
3.04863e-05
3.31934e-05
3.48171e-05
3.52417e-05
3.51231e-05
3.50541e-05
3.52967e-05
3.64546e-05
3.89631e-05
4.19257e-05
4.29337e-05
3.70798e-05
1.74995e-05
5.68805e-06
7.96173e-07
8.85073e-09
2.6342e-06
7.14371e-06
1.34277e-05
1.8791e-05
2.16031e-05
2.43501e-05
2.70974e-05
2.98867e-05
3.27529e-05
3.57196e-05
3.87955e-05
4.19694e-05
3.86879e-05
3.45356e-05
3.15918e-05
2.9999e-05
3.02526e-05
3.13681e-05
3.27551e-05
3.47229e-05
3.62403e-05
3.63458e-05
3.5124e-05
3.36907e-05
3.22888e-05
3.1316e-05
3.16732e-05
3.40727e-05
3.86541e-05
4.22084e-05
3.83373e-05
1.91662e-05
5.85966e-06
8.81121e-07
1.80047e-08
3.39195e-06
1.09741e-05
2.2442e-05
2.57729e-05
2.87408e-05
3.15596e-05
3.43309e-05
3.71252e-05
3.99895e-05
4.29509e-05
4.60104e-05
4.71639e-05
4.38025e-05
4.06359e-05
3.81461e-05
3.65973e-05
3.59651e-05
3.63779e-05
3.76851e-05
3.88517e-05
3.91324e-05
3.83272e-05
3.69301e-05
3.53861e-05
3.37551e-05
3.1953e-05
3.06354e-05
3.0721e-05
3.30219e-05
3.84305e-05
3.96144e-05
2.01528e-05
5.95677e-06
8.93985e-07
2.64334e-08
3.93855e-06
1.36504e-05
2.83232e-05
3.18651e-05
3.50476e-05
3.80431e-05
4.09642e-05
4.38852e-05
4.68473e-05
4.98684e-05
5.29427e-05
5.60406e-05
5.10525e-05
4.58294e-05
4.29092e-05
4.1204e-05
4.01077e-05
3.95298e-05
3.92125e-05
3.90212e-05
3.85541e-05
3.72595e-05
3.56977e-05
3.42575e-05
3.28992e-05
3.19458e-05
3.19597e-05
3.35448e-05
3.66114e-05
3.91986e-05
3.88643e-05
2.17929e-05
6.09902e-06
8.64111e-07
3.04278e-08
4.10953e-06
1.38035e-05
3.22366e-05
3.60548e-05
3.95258e-05
4.27817e-05
4.59093e-05
4.89722e-05
5.20118e-05
5.50501e-05
5.80899e-05
6.1123e-05
5.8682e-05
5.14605e-05
4.70234e-05
4.48282e-05
4.36278e-05
4.2649e-05
4.14924e-05
4.01184e-05
3.86063e-05
3.70586e-05
3.55243e-05
3.41481e-05
3.31567e-05
3.2715e-05
3.29891e-05
3.42875e-05
3.70879e-05
4.00209e-05
3.72681e-05
1.96899e-05
6.02482e-06
7.95676e-07
3.01185e-08
4.01821e-06
1.27411e-05
3.38817e-05
3.82096e-05
4.21085e-05
4.57012e-05
4.90794e-05
5.23069e-05
5.54301e-05
5.84787e-05
6.14664e-05
6.4393e-05
6.27194e-05
5.4253e-05
4.88164e-05
4.58852e-05
4.39209e-05
4.21729e-05
4.0494e-05
3.87399e-05
3.70148e-05
3.55573e-05
3.44528e-05
3.37688e-05
3.35553e-05
3.38576e-05
3.4746e-05
3.62702e-05
3.82512e-05
3.99357e-05
3.68496e-05
1.89236e-05
5.82645e-06
7.54868e-07
2.72283e-08
3.93745e-06
1.14412e-05
2.9052e-05
3.83717e-05
4.22942e-05
4.59715e-05
4.94457e-05
5.27557e-05
5.59339e-05
5.90061e-05
6.19896e-05
6.48928e-05
6.4182e-05
5.42775e-05
4.75811e-05
4.37463e-05
4.1063e-05
3.87991e-05
3.69578e-05
3.5624e-05
3.46788e-05
3.40248e-05
3.36104e-05
3.34669e-05
3.37267e-05
3.44422e-05
3.57057e-05
3.74126e-05
3.9238e-05
4.00417e-05
3.61067e-05
1.85831e-05
5.76532e-06
7.47464e-07
2.27549e-08
3.78409e-06
9.96617e-06
2.31347e-05
3.76467e-05
4.16852e-05
4.55027e-05
4.91089e-05
5.25257e-05
5.57798e-05
5.8897e-05
6.18985e-05
6.47983e-05
6.20529e-05
5.11787e-05
4.36517e-05
3.93802e-05
3.69984e-05
3.57198e-05
3.51003e-05
3.48526e-05
3.51477e-05
3.55677e-05
3.54908e-05
3.51521e-05
3.49125e-05
3.53969e-05
3.66449e-05
3.84513e-05
4.01936e-05
4.04807e-05
3.55544e-05
1.79952e-05
5.71333e-06
7.51298e-07
1.82015e-08
3.4805e-06
8.50277e-06
1.82612e-05
3.48364e-05
3.89565e-05
4.28913e-05
4.66308e-05
5.01821e-05
5.3564e-05
5.67991e-05
5.99091e-05
6.29117e-05
5.22614e-05
4.30249e-05
3.78122e-05
3.56158e-05
3.51632e-05
3.57169e-05
3.73041e-05
3.93114e-05
3.96968e-05
3.84344e-05
3.69432e-05
3.57022e-05
3.49781e-05
3.52384e-05
3.67362e-05
3.90092e-05
4.12449e-05
4.15998e-05
3.61912e-05
1.76373e-05
5.57237e-06
7.6495e-07
1.49021e-08
3.21819e-06
7.54609e-06
1.52099e-05
2.82885e-05
3.59929e-05
3.99142e-05
4.369e-05
4.73097e-05
5.0781e-05
5.41234e-05
5.73584e-05
4.95695e-05
4.10877e-05
3.63846e-05
3.49838e-05
3.57837e-05
3.80494e-05
4.14776e-05
4.33575e-05
4.26471e-05
4.12807e-05
3.96649e-05
3.78372e-05
3.60195e-05
3.50954e-05
3.45986e-05
3.53584e-05
3.80465e-05
4.10821e-05
4.19064e-05
3.63555e-05
1.72205e-05
5.45022e-06
7.83363e-07
1.31113e-08
3.08454e-06
7.19237e-06
1.36491e-05
2.36582e-05
3.36423e-05
3.75621e-05
4.13991e-05
4.50954e-05
4.86385e-05
5.20767e-05
4.61453e-05
3.95092e-05
3.5945e-05
3.55042e-05
3.72894e-05
4.07751e-05
4.45924e-05
4.60353e-05
4.55823e-05
4.50593e-05
4.40523e-05
4.209e-05
3.90705e-05
3.54846e-05
3.26147e-05
3.20327e-05
3.32515e-05
3.57075e-05
3.92634e-05
4.07035e-05
3.51121e-05
1.65633e-05
5.35834e-06
8.0459e-07
1.2909e-08
3.13343e-06
7.51671e-06
1.39543e-05
2.26274e-05
3.196e-05
3.61213e-05
3.98911e-05
4.36492e-05
4.59894e-05
4.22264e-05
3.8155e-05
3.62008e-05
3.66595e-05
3.93057e-05
4.33992e-05
4.65746e-05
4.81682e-05
4.9455e-05
5.03862e-05
4.99122e-05
4.77726e-05
4.43845e-05
3.97788e-05
3.49451e-05
3.11616e-05
2.96727e-05
3.10887e-05
3.44229e-05
3.80941e-05
3.97935e-05
3.464e-05
1.65076e-05
5.34206e-06
8.25513e-07
1.38802e-08
3.12536e-06
7.92047e-06
1.49456e-05
2.36313e-05
3.1829e-05
3.60567e-05
3.97971e-05
4.05945e-05
3.8914e-05
3.70956e-05
3.67148e-05
3.82266e-05
4.16237e-05
4.5071e-05
4.73902e-05
4.99149e-05
5.28777e-05
5.52644e-05
5.5971e-05
5.40896e-05
4.9929e-05
4.45697e-05
3.87417e-05
3.33281e-05
3.04995e-05
3.0007e-05
3.0713e-05
3.33854e-05
3.74633e-05
3.98703e-05
3.49356e-05
1.65614e-05
5.30642e-06
8.28683e-07
1.64657e-08
3.22148e-06
8.67863e-06
1.71413e-05
2.6785e-05
3.38485e-05
3.76199e-05
3.94652e-05
3.90817e-05
3.85612e-05
3.91105e-05
4.11695e-05
4.43877e-05
4.70401e-05
4.90775e-05
5.15492e-05
5.48482e-05
5.83403e-05
6.04412e-05
6.00893e-05
5.64593e-05
5.00698e-05
4.25759e-05
3.54731e-05
3.14153e-05
3.01773e-05
3.05168e-05
3.21371e-05
3.44811e-05
3.73767e-05
3.96723e-05
3.505e-05
1.66674e-05
5.29317e-06
8.20567e-07
1.99708e-08
3.29363e-06
9.12946e-06
1.91124e-05
3.06085e-05
3.69044e-05
4.0743e-05
4.35971e-05
4.3706e-05
4.42268e-05
4.57906e-05
4.80918e-05
5.05103e-05
5.27497e-05
5.49591e-05
5.73776e-05
6.03457e-05
6.33612e-05
6.47278e-05
6.24907e-05
5.58091e-05
4.65192e-05
3.7956e-05
3.30772e-05
3.09548e-05
3.00618e-05
3.03489e-05
3.23254e-05
3.53864e-05
3.81208e-05
3.93397e-05
3.40239e-05
1.64027e-05
5.26763e-06
7.90763e-07
2.18441e-08
3.04487e-06
8.35766e-06
1.83264e-05
3.1474e-05
3.93137e-05
4.33136e-05
4.72458e-05
5.11171e-05
5.42919e-05
5.55265e-05
5.74248e-05
5.92525e-05
6.07106e-05
6.23021e-05
6.42167e-05
6.64346e-05
6.82872e-05
6.74602e-05
6.15525e-05
5.13563e-05
4.12288e-05
3.46941e-05
3.12244e-05
2.98059e-05
2.99312e-05
3.09893e-05
3.27804e-05
3.53586e-05
3.8243e-05
3.89554e-05
3.29292e-05
1.60431e-05
5.25692e-06
7.57351e-07
2.20241e-08
2.75288e-06
7.10671e-06
1.57669e-05
3.0191e-05
4.07707e-05
4.50276e-05
4.91783e-05
5.32821e-05
5.73279e-05
6.12973e-05
6.51712e-05
6.89311e-05
7.25579e-05
7.31935e-05
7.42302e-05
7.53991e-05
7.48393e-05
6.96454e-05
5.87473e-05
4.60684e-05
3.68932e-05
3.21547e-05
3.02012e-05
2.97753e-05
3.02145e-05
3.14205e-05
3.36213e-05
3.6506e-05
3.9111e-05
3.96629e-05
3.34075e-05
1.59704e-05
5.25197e-06
7.30671e-07
2.13965e-08
2.51491e-06
6.34539e-06
1.34749e-05
2.60287e-05
4.09862e-05
4.54277e-05
4.98786e-05
5.42379e-05
5.84977e-05
6.26565e-05
6.67075e-05
7.06355e-05
7.44167e-05
7.80233e-05
8.14353e-05
8.46505e-05
8.3449e-05
7.14433e-05
5.53006e-05
4.18608e-05
3.43806e-05
3.13467e-05
3.03889e-05
3.01012e-05
3.02225e-05
3.11357e-05
3.32304e-05
3.61435e-05
3.89772e-05
3.97494e-05
3.34256e-05
1.59375e-05
5.24765e-06
7.27149e-07
2.18961e-08
2.44635e-06
6.22311e-06
1.30377e-05
2.51238e-05
4.07514e-05
4.54234e-05
5.01144e-05
5.47316e-05
5.92058e-05
6.35608e-05
6.78012e-05
7.19304e-05
7.59092e-05
7.96775e-05
8.31797e-05
8.6369e-05
8.82335e-05
7.07129e-05
5.22667e-05
4.01209e-05
3.44832e-05
3.2436e-05
3.15012e-05
3.05913e-05
2.98191e-05
2.9881e-05
3.14477e-05
3.45404e-05
3.82762e-05
3.94452e-05
3.34589e-05
1.61359e-05
5.35318e-06
7.3525e-07
2.39796e-08
2.46978e-06
6.68132e-06
1.42146e-05
2.63492e-05
4.03401e-05
4.53071e-05
5.02169e-05
5.50586e-05
5.98004e-05
6.43665e-05
6.8731e-05
7.28836e-05
7.68186e-05
8.05183e-05
8.39545e-05
8.70905e-05
8.933e-05
7.02608e-05
5.27035e-05
4.20172e-05
3.71648e-05
3.4967e-05
3.2955e-05
3.06625e-05
2.85007e-05
2.74147e-05
2.83669e-05
3.1621e-05
3.66473e-05
3.96058e-05
3.48572e-05
1.68884e-05
5.50484e-06
7.69271e-07
2.76181e-08
2.65691e-06
7.83768e-06
1.79385e-05
3.29606e-05
4.00571e-05
4.50354e-05
5.00204e-05
5.50233e-05
5.98357e-05
6.44284e-05
6.87991e-05
7.29457e-05
7.68735e-05
8.05738e-05
8.40116e-05
8.71552e-05
8.99619e-05
7.42051e-05
5.79139e-05
4.71717e-05
4.15237e-05
3.81748e-05
3.48394e-05
3.10192e-05
2.7284e-05
2.48289e-05
2.4715e-05
2.74926e-05
3.30106e-05
3.82829e-05
3.63463e-05
1.77997e-05
5.61808e-06
8.1702e-07
3.27333e-08
3.06861e-06
1.00097e-05
2.45204e-05
3.61806e-05
4.10706e-05
4.58836e-05
5.06264e-05
5.5334e-05
6.00485e-05
6.45915e-05
6.88797e-05
7.29449e-05
7.67973e-05
8.04084e-05
8.37752e-05
8.68499e-05
8.95725e-05
7.85655e-05
6.3454e-05
5.25438e-05
4.62477e-05
4.1995e-05
3.75697e-05
3.24889e-05
2.74072e-05
2.34116e-05
2.14885e-05
2.26334e-05
2.78611e-05
3.59214e-05
3.70919e-05
1.89017e-05
5.77684e-06
8.76065e-07