/*--------------------------------*- C++ -*----------------------------------*\
| =========                 |                                                 |
| \\      /  F ield         | OpenFOAM: The Open Source CFD Toolbox           |
|  \\    /   O peration     | Version:  v1906                                 |
|   \\  /    A nd           | Web:      www.OpenFOAM.com                      |
|    \\/     M anipulation  |                                                 |
\*---------------------------------------------------------------------------*/
FoamFile
{
    version     2.0;
    format      ascii;
    class       volScalarField;
    location    "900";
    object      omega;
}
// * * * * * * * * * * * * * * * * * * * * * * * * * * * * * * * * * * * * * //

dimensions      [0 0 -1 0 0 0 0];


internalField   nonuniform List<scalar> 
78750
(
357.992
13.7576
13.7201
13.6978
13.692
13.6939
13.6986
13.7057
13.7153
13.7261
13.7378
13.7503
13.763
13.7755
13.7879
13.8003
13.8125
13.8247
13.8366
13.8479
13.8584
13.8677
13.8754
13.8814
13.8857
13.887
13.8852
13.868
13.8278
13.777
13.7086
13.6127
13.4807
13.3054
338.193
525.558
4.38368
4.3657
4.36105
4.36067
4.35864
4.3556
4.35149
4.34603
4.33906
4.33074
4.32158
4.31273
4.3052
4.3001
4.29926
4.30494
4.32139
4.35331
4.40442
4.47299
4.5513
4.62897
4.70226
4.7688
4.83252
4.89407
4.94711
4.98525
4.98568
4.94397
4.86539
4.74442
4.53974
502.897
525.622
4.42919
4.38142
4.36209
4.34613
4.33024
4.31468
4.29976
4.28591
4.27339
4.26236
4.25255
4.24406
4.23711
4.23214
4.23008
4.23214
4.2419
4.26531
4.3115
4.38401
4.47147
4.55779
4.63506
4.70545
4.77911
4.86799
4.95309
5.01098
5.02373
4.98498
4.90617
4.78793
4.59451
503.486
525.667
4.47224
4.40454
4.36471
4.33648
4.31226
4.29035
4.27034
4.25254
4.23742
4.22474
4.21423
4.20606
4.20079
4.19955
4.2028
4.21417
4.23709
4.27919
4.34794
4.44527
4.55532
4.66325
4.7725
4.88377
4.99217
5.09291
5.16997
5.18692
5.1519
5.09607
5.01257
4.8921
4.6712
505.141
525.671
4.4912
4.4206
4.372
4.33401
4.30053
4.26988
4.24261
4.21989
4.20229
4.1893
4.18026
4.17507
4.17381
4.17583
4.18381
4.20238
4.23679
4.28896
4.36662
4.4634
4.56393
4.66653
4.77843
4.89865
5.02512
5.13789
5.20578
5.21155
5.16732
5.11712
5.08141
5.00309
4.82301
506.906
525.673
4.51146
4.44238
4.38647
4.34031
4.30077
4.26594
4.2363
4.21292
4.1963
4.18542
4.17924
4.17744
4.17915
4.18564
4.20079
4.22035
4.24745
4.29365
4.37066
4.46441
4.55997
4.65755
4.76422
4.8859
5.00806
5.1067
5.15634
5.14851
5.10513
5.10987
5.12761
5.0938
4.96333
507.841
525.658
4.51903
4.45865
4.40187
4.35036
4.30643
4.26849
4.23681
4.21275
4.19774
4.19148
4.19249
4.19697
4.20341
4.21072
4.21832
4.22806
4.24846
4.28599
4.34375
4.41191
4.48129
4.55346
4.62652
4.69988
4.77389
4.83084
4.86598
4.90909
4.98021
5.07818
5.1562
5.14012
4.9977
507.908
525.638
4.52149
4.47309
4.42082
4.36799
4.32018
4.27756
4.23997
4.21016
4.19129
4.18342
4.18217
4.18506
4.19145
4.20147
4.21689
4.23984
4.27305
4.32075
4.3805
4.44264
4.50483
4.57621
4.64289
4.70909
4.78217
4.87777
5.01799
5.17421
5.3149
5.40076
5.38828
5.28133
5.02807
507.394
525.623
4.52041
4.48453
4.43905
4.38754
4.33705
4.28907
4.24788
4.22008
4.20951
4.2113
4.2197
4.23115
4.24335
4.25588
4.27077
4.29295
4.32918
4.38313
4.45496
4.5425
4.65533
4.80567
5.00042
5.20562
5.40341
5.58105
5.69084
5.73339
5.72679
5.65319
5.51845
5.32506
5.02096
506.032
525.612
4.52207
4.4949
4.45565
4.40663
4.35435
4.30401
4.2654
4.24893
4.25429
4.27532
4.30487
4.3405
4.38317
4.43648
4.50387
4.59053
4.69824
4.82265
4.9559
5.09935
5.26316
5.44498
5.61094
5.73877
5.83517
5.89647
5.90644
5.88529
5.82336
5.72566
5.58966
5.39024
5.05677
505.999
525.602
4.52483
4.50772
4.47469
4.42774
4.37555
4.33085
4.30968
4.31974
4.35719
4.40999
4.47321
4.54854
4.63759
4.73851
4.85091
4.97366
5.10105
5.22523
5.34899
5.48519
5.63597
5.77541
5.89212
5.99183
6.06122
6.09681
6.09991
6.07105
6.00416
5.89887
5.74849
5.52632
5.16736
506.662
525.59
4.52592
4.51795
4.49001
4.44522
4.39723
4.36506
4.36502
4.40195
4.46158
4.53388
4.621
4.72463
4.84192
4.96502
5.0893
5.20887
5.31793
5.42355
5.53952
5.67408
5.80992
5.93252
6.04944
6.14433
6.20787
6.23959
6.24028
6.20568
6.1328
6.02173
5.86928
5.65169
5.29484
507.589
525.571
4.52432
4.5261
4.50455
4.466
4.42816
4.41282
4.43339
4.48794
4.55951
4.64201
4.7424
4.86209
4.99089
5.118
5.23495
5.33733
5.43469
5.54539
5.67964
5.81901
5.95277
6.0891
6.21256
6.30841
6.37459
6.40454
6.40338
6.36204
6.28058
6.15596
5.98747
5.74848
5.36956
507.99
525.546
4.51675
4.53032
4.51672
4.48643
4.45793
4.45276
4.4839
4.54754
4.62712
4.72213
4.84203
4.98034
5.1185
5.24181
5.34658
5.44517
5.55795
5.69634
5.84399
5.98475
6.12591
6.2681
6.38941
6.48245
6.54517
6.56835
6.55458
6.49261
6.39218
6.25328
6.07396
5.82261
5.42796
508.355
525.523
4.50746
4.53199
4.52739
4.50704
4.48975
4.49933
4.54885
4.62857
4.72523
4.84482
4.98736
5.13123
5.25704
5.36268
5.46185
5.57358
5.7074
5.85082
5.99167
6.13351
6.28191
6.4222
6.54363
6.64419
6.71179
6.72297
6.67522
6.60189
6.4996
6.36601
6.19448
5.94822
5.53793
509.007
525.498
4.49595
4.53152
4.53604
4.52633
4.52347
4.55243
4.62239
4.71787
4.83071
4.96421
5.1055
5.23166
5.33708
5.43476
5.54184
5.66736
5.80494
5.94514
6.09008
6.24729
6.4094
6.56401
6.70337
6.80674
6.84746
6.83769
6.7723
6.69549
6.59539
6.46595
6.29893
6.05548
5.63725
509.469
525.468
4.48064
4.53002
4.54669
4.5515
4.56584
4.61277
4.69693
4.80258
4.92278
5.05412
5.17875
5.2859
5.38548
5.49332
5.61829
5.7583
5.90872
6.06388
6.22442
6.39858
6.57948
6.74064
6.86726
6.94326
6.95543
6.90482
6.83379
6.76151
6.67229
6.55532
6.40059
6.16763
5.74468
509.893
525.436
4.4593
4.52291
4.55348
4.57249
4.60027
4.65538
4.74319
4.85339
4.97509
5.09673
5.20907
5.31742
5.4353
5.57239
5.72703
5.89184
6.0633
6.23787
6.41729
6.6035
6.77509
6.91265
7.0053
7.03678
7.01337
6.92884
6.86415
6.80769
6.73938
6.64238
6.50418
6.28205
5.84678
510.279
525.414
4.44091
4.51393
4.55559
4.58537
4.62377
4.68742
4.78227
4.89727
5.01745
5.13705
5.26131
5.39812
5.54921
5.71267
5.88767
6.07313
6.26583
6.4577
6.63727
6.80347
6.94443
7.04736
7.09548
7.09189
7.0291
6.93848
6.88835
6.8541
6.81297
6.73938
6.61916
6.4098
5.96565
510.55
525.393
4.42504
4.50747
4.55988
4.60323
4.65506
4.73044
4.83172
4.94712
5.06926
5.20013
5.344
5.50365
5.6795
5.86915
6.0692
6.2777
6.48241
6.66902
6.82952
6.9645
7.06877
7.13119
7.14267
7.10521
7.01226
6.92569
6.89482
6.8939
6.89145
6.84899
6.75031
6.55744
6.11266
510.96
525.373
4.40894
4.49905
4.56194
4.61495
4.67701
4.7607
4.86494
4.9834
5.11599
5.26582
5.43371
5.61816
5.81732
6.02963
6.24816
6.46128
6.65793
6.82856
6.96542
7.06654
7.13212
7.15785
7.1403
7.07097
6.95544
6.88201
6.88491
6.92927
6.97407
6.96747
6.88559
6.70212
6.2664
511.367
525.355
4.3983
4.49841
4.57341
4.64009
4.71569
4.80948
4.92135
5.0508
5.19924
5.36671
5.55157
5.75226
5.96676
6.18564
6.39935
6.59724
6.7693
6.90842
7.01078
7.07569
7.10191
7.0891
7.03405
6.9344
6.83761
6.82846
6.88955
6.9948
7.09027
7.10616
7.02828
6.84399
6.41195
511.549
525.336
4.38591
4.49685
4.58406
4.66134
4.74439
4.84194
4.95722
5.09258
5.24906
5.42553
5.62018
5.82908
6.04265
6.2517
6.44636
6.61767
6.76024
6.86368
6.92585
6.9473
6.93263
6.88485
6.80769
6.73574
6.74438
6.82638
6.97619
7.13787
7.24179
7.24797
7.16026
6.95821
6.49776
511.611
525.326
4.38284
4.50222
4.60247
4.69102
4.78171
4.88496
5.00666
5.14965
5.314
5.49776
5.69622
5.89933
6.09753
6.28101
6.44196
6.57086
6.65924
6.70895
6.72093
6.70133
6.65818
6.60425
6.58027
6.6386
6.78461
6.99382
7.19791
7.34778
7.41918
7.39947
7.2908
7.06706
6.56274
511.483
525.325
4.38593
4.51465
4.62444
4.72162
4.81875
4.92752
5.05552
5.20604
5.37791
5.56634
5.76046
5.94906
6.12121
6.27376
6.39234
6.47346
6.51575
6.52234
6.50246
6.46743
6.43975
6.45416
6.5616
6.7534
6.98108
7.20034
7.38432
7.51368
7.56496
7.53375
7.41835
7.17562
6.62409
511.061
525.33
4.39693
4.53303
4.65158
4.75767
4.86345
4.98129
5.11805
5.27376
5.44365
5.61984
5.79107
5.94893
6.08806
6.19281
6.26478
6.30329
6.31181
6.29981
6.2788
6.26926
6.29987
6.39491
6.57066
6.79928
7.04158
7.27816
7.4876
7.63727
7.69671
7.67123
7.55674
7.30567
6.72481
510.995
525.333
4.40885
4.5541
4.68141
4.79566
4.9078
5.0287
5.16429
5.31375
5.47052
5.63042
5.78589
5.91847
6.01707
6.08303
6.11802
6.1269
6.11932
6.10885
6.10922
6.13399
6.20465
6.34291
6.55854
6.81766
7.08365
7.34491
7.58265
7.75034
7.82553
7.80875
7.70236
7.46014
6.88015
511.163
525.328
4.41223
4.56596
4.70041
4.81912
4.93217
5.04988
5.17546
5.312
5.45379
5.58979
5.70547
5.79916
5.86936
5.91641
5.94411
5.95988
5.97356
5.99648
6.04295
6.12456
6.25456
6.44571
6.6702
6.90637
7.17358
7.46152
7.71559
7.87842
7.95282
7.93643
7.82925
7.58212
6.98082
511.077
525.323
4.41433
4.57311
4.71019
4.82909
4.93907
5.04914
5.16425
5.28103
5.39807
5.50873
5.60661
5.68821
5.75292
5.80367
5.84614
5.88741
5.93453
5.99455
6.07564
6.18955
6.33437
6.4962
6.67547
6.89444
7.17084
7.48894
7.78219
8.00518
8.08617
8.07464
7.96614
7.70761
7.07777
510.6
525.32
4.41314
4.57503
4.71365
4.83189
4.93975
5.04694
5.15495
5.2622
5.36625
5.46337
5.55075
5.6273
5.69358
5.75174
5.80485
5.85565
5.9065
5.96049
6.0213
6.07719
6.11882
6.171
6.29085
6.49233
6.81866
7.28375
7.71875
8.03221
8.20056
8.22013
8.13895
7.90252
7.28951
510.72
525.3
4.3998
4.5669
4.7064
4.82369
4.92819
5.02641
5.12327
5.21954
5.3135
5.40263
5.4848
5.55911
5.62574
5.68553
5.73942
5.78775
5.83066
5.86856
5.90403
5.93705
5.96948
6.00834
6.04146
6.10155
6.28699
6.71985
7.35695
7.9081
8.23076
8.32678
8.29727
8.12398
7.63462
511.841
525.271
4.37293
4.54321
4.68584
4.80384
4.90633
5.00137
5.0931
5.18254
5.26898
5.35097
5.42718
5.49702
5.56061
5.61848
5.6714
5.7202
5.76662
5.80837
5.84528
5.87826
5.91065
5.94771
5.99392
6.06643
6.25329
6.66854
7.27008
7.85257
8.23539
8.39048
8.36756
8.20731
7.78105
512.501
525.252
4.3502
4.51996
4.66602
4.78758
4.89115
4.98489
5.07343
5.15802
5.23834
5.31346
5.38275
5.44577
5.50232
5.55251
5.59637
5.63371
5.66452
5.68918
5.70905
5.7282
5.76324
5.86578
6.07801
6.42019
6.87617
7.38769
7.87935
8.23815
8.45246
8.50967
8.43996
8.23223
7.78304
512.459
525.245
4.34383
4.51171
4.65599
4.77569
4.87618
4.96536
5.04819
5.1263
5.19949
5.26912
5.33398
5.39418
5.45086
5.50298
5.55328
5.60446
5.66008
5.72422
5.83547
6.06504
6.41563
6.83201
7.26068
7.65665
7.99899
8.26627
8.44081
8.57049
8.62023
8.59101
8.46558
8.22685
7.70254
511.566
525.249
4.34865
4.51617
4.65995
4.77956
4.88001
4.96874
5.05133
5.12988
5.20498
5.27425
5.33915
5.40021
5.45745
5.51742
5.59319
5.71905
5.91329
6.18662
6.51209
6.84397
7.1719
7.45937
7.70718
7.93351
8.13636
8.3272
8.49357
8.61058
8.65169
8.61259
8.48073
8.21594
7.6088
510.861
525.26
4.36876
4.54082
4.68317
4.79935
4.89721
4.9842
5.06452
5.14052
5.2135
5.28559
5.36129
5.44967
5.56076
5.70305
5.88196
6.08872
6.31969
6.55577
6.79085
7.03087
7.26711
7.50099
7.74559
8.00514
8.27055
8.50651
8.67942
8.76465
8.76706
8.69529
8.53091
8.22561
7.59437
510.826
525.271
4.38646
4.56224
4.70651
4.82642
4.9298
5.02273
5.10915
5.19194
5.27493
5.36419
5.46603
5.58609
5.72961
5.89531
6.07702
6.27052
6.46857
6.66932
6.88304
7.10998
7.35017
7.60717
7.87637
8.1445
8.38349
8.57528
8.71033
8.78163
8.78033
8.70644
8.53985
8.22855
7.58104
510.91
525.284
4.41296
4.59953
4.74866
4.86601
4.96109
5.04433
5.12703
5.22
5.3314
5.46631
5.62515
5.80246
5.98892
6.17969
6.37062
6.55242
6.73062
6.9263
7.14089
7.37537
7.62112
7.8759
8.13546
8.37622
8.58139
8.74085
8.84616
8.88559
8.85749
8.7442
8.55277
8.22296
7.54608
510.984
525.317
4.46186
4.6514
4.79549
4.91843
5.04244
5.18037
5.33682
5.50824
5.68736
5.86762
6.03811
6.1867
6.31247
6.42409
6.5261
6.64313
6.789
6.97257
7.19639
7.45745
7.75507
8.05698
8.32872
8.55977
8.74029
8.86072
8.92322
8.9233
8.86759
8.74256
8.5384
8.16204
7.41603
510.633
525.375
4.50379
4.72369
4.92769
5.12032
5.30769
5.48994
5.65966
5.80808
5.92937
6.02127
6.08931
6.13751
6.15128
6.15894
6.21869
6.3554
6.55112
6.80618
7.10621
7.43288
7.75755
8.06981
8.35124
8.58935
8.77682
8.91037
8.96958
8.96347
8.89274
8.75686
8.53644
8.15022
7.39274
510.489
525.476
4.66918
4.93069
5.15322
5.3447
5.51024
5.64768
5.75767
5.84144
5.88349
5.8657
5.76273
5.62724
5.56411
5.5526
5.63078
5.7797
5.9954
6.28438
6.64298
7.06057
7.48206
7.88956
8.25494
8.5538
8.77532
8.91857
8.98989
8.99439
8.93645
8.80073
8.57263
8.16165
7.3938
510.718
525.443
4.66036
4.9354
5.16421
5.34799
5.50478
5.62995
5.71249
5.73831
5.68528
5.58673
5.47441
5.39577
5.38083
5.40318
5.44401
5.53698
5.69391
5.92414
6.22378
6.58026
7.01173
7.47469
7.92348
8.31814
8.63285
8.85325
8.97433
8.99943
8.95535
8.84517
8.64715
8.28076
7.59363
511.746
525.315
4.56293
4.89224
5.13508
5.3119
5.44343
5.54259
5.60983
5.6411
5.63411
5.5844
5.52227
5.4665
5.42035
5.41459
5.43702
5.52332
5.67505
5.90079
6.19615
6.55281
6.96199
7.40352
7.84517
8.24273
8.55689
8.78117
8.92385
8.97949
8.95472
8.84969
8.65616
8.31312
7.6984
512.958
525.238
4.40797
4.67225
4.89919
5.07858
5.21667
5.32121
5.39354
5.43286
5.43851
5.42489
5.38458
5.35362
5.35886
5.40384
5.51185
5.68869
5.93459
6.23274
6.56866
6.92823
7.29122
7.64353
7.98649
8.2992
8.56604
8.78043
8.91756
8.9652
8.9352
8.82613
8.63704
8.30675
7.70241
513.215
525.26
4.41566
4.62351
4.78388
4.90164
4.98486
5.04086
5.07152
5.084
5.09463
5.11843
5.17643
5.28727
5.47701
5.73451
6.02508
6.32719
6.6355
6.95017
7.26801
7.58363
7.8873
8.1701
8.40958
8.61758
8.79403
8.90536
8.95922
8.95609
8.89956
8.76717
8.55847
8.20941
7.5713
513.046
525.25
4.33456
4.46969
4.57276
4.66008
4.74297
4.83077
4.93107
5.04851
5.18973
5.35901
5.5518
5.7526
5.94956
6.15933
6.38367
6.62567
6.88916
7.16603
7.44267
7.71007
7.9714
8.22074
8.45065
8.65136
8.80967
8.9184
8.96804
8.95163
8.86855
8.72699
8.50556
8.13449
7.46397
512.461
525.233
4.27773
4.40511
4.53061
4.65953
4.78967
4.92051
5.052
5.18515
5.32227
5.46595
5.61822
5.78306
5.9655
6.16762
6.39
6.63511
6.90169
7.18029
7.46374
7.7483
8.02412
8.28276
8.51627
8.71395
8.8625
8.95088
8.97942
8.94923
8.85605
8.70068
8.47288
8.11059
7.45075
512.269
525.222
4.24006
4.359
4.48549
4.61774
4.75039
4.87754
5.00095
5.12604
5.25461
5.38602
5.51992
5.65618
5.80481
5.98325
6.20209
6.46042
6.74569
7.04974
7.36717
7.68911
7.99511
8.27462
8.51686
8.71852
8.86763
8.9529
8.97276
8.93186
8.83062
8.67483
8.45403
8.11007
7.46236
512.362
525.224
4.24582
4.36876
4.49035
4.61271
4.73472
4.85368
4.97247
5.09491
5.2213
5.35194
5.48695
5.62592
5.77572
5.95273
6.16768
6.41925
6.70225
7.00757
7.32301
7.63764
7.95429
8.2463
8.50004
8.69662
8.82326
8.87852
8.88042
8.83572
8.75136
8.6225
8.4375
8.14497
7.57405
512.869
525.246
4.33715
4.50708
4.64341
4.75817
4.86532
4.97222
5.08122
5.19388
5.31158
5.43535
5.56567
5.70221
5.85115
6.02571
6.23332
6.47536
6.74797
7.03417
7.32598
7.61405
7.87822
8.1168
8.32877
8.50273
8.62684
8.706
8.74103
8.73065
8.68037
8.58274
8.42602
8.165
7.64234
513.217
525.284
4.49493
4.73377
4.89573
5.02325
5.14081
5.25442
5.36791
5.4841
5.60504
5.73207
5.86547
6.00632
6.16133
6.33942
6.54179
6.7621
6.99226
7.22127
7.44086
7.65517
7.87075
8.07721
8.2544
8.39517
8.5082
8.59005
8.64062
8.66376
8.64132
8.55213
8.41048
8.15735
7.6431
513.285
525.321
4.64824
4.94507
5.13182
5.27497
5.40607
5.53152
5.65581
5.78199
5.91192
6.04647
6.18549
6.3278
6.4795
6.64852
6.83157
7.02235
7.21517
7.40529
7.5908
7.7677
7.93804
8.1009
8.25556
8.39185
8.50336
8.58639
8.64023
8.66085
8.63639
8.54394
8.38367
8.11001
7.57641
512.989
525.341
4.74614
5.09067
5.29888
5.45728
5.60432
5.74433
5.88088
6.01664
6.15341
6.29213
6.43291
6.57524
6.72306
6.88425
7.05947
7.24029
7.41875
7.58907
7.7507
7.90545
8.05568
8.19979
8.33415
8.45608
8.56153
8.64173
8.68691
8.68576
8.63777
8.53271
8.35831
8.0619
7.48342
512.002
525.342
4.76473
5.13923
5.37818
5.55984
5.72666
5.88358
6.03372
6.17939
6.32239
6.46393
6.60464
6.7444
6.88628
7.03838
7.20296
7.3722
7.5398
7.70337
7.8633
8.02062
8.17606
8.32504
8.46074
8.57576
8.66248
8.71729
8.7348
8.71294
8.64499
8.52897
8.34844
8.04149
7.44367
511.408
525.331
4.75583
5.13684
5.38378
5.56985
5.73975
5.90203
6.05811
6.20928
6.35664
6.50092
6.6425
6.78137
6.92036
7.06877
7.23141
7.40034
7.56856
7.73182
7.893
8.05272
8.2082
8.35279
8.48054
8.58995
8.67432
8.72819
8.74492
8.71893
8.64911
8.53171
8.34875
8.04043
7.43863
511.368
525.314
4.70575
5.08156
5.34964
5.54798
5.72188
5.88926
6.05008
6.20484
6.35447
6.49965
6.64137
6.77992
6.91873
7.06749
7.2306
7.40009
7.56957
7.7385
7.90886
8.0814
8.2478
8.40417
8.54264
8.65319
8.73223
8.77477
8.77885
8.74356
8.66341
8.53535
8.34768
8.03432
7.43783
511.351
525.295
4.62098
4.96536
5.23436
5.43684
5.61235
5.78337
5.94885
6.10858
6.2629
6.41245
6.55788
6.69976
6.84688
7.00985
7.18557
7.36544
7.54529
7.72515
7.90534
8.08322
8.25229
8.40826
8.5458
8.65705
8.73556
8.77745
8.78175
8.74616
8.66765
8.54254
8.35508
8.03815
7.43908
511.386
525.282
4.5434
4.85083
5.10627
5.30927
5.48407
5.65205
5.81671
5.97724
6.13352
6.28593
6.43524
6.58892
6.75818
6.94283
7.13318
7.32355
7.51382
7.70504
7.89666
8.08339
8.26496
8.43367
8.58023
8.69175
8.76635
8.80064
8.79898
8.75936
8.67893
8.55203
8.36352
8.04533
7.44898
511.608
525.274
4.489
4.76558
5.00535
5.2086
5.38374
5.54924
5.71364
5.87526
6.03355
6.18769
6.34924
6.52656
6.71829
6.91492
7.11063
7.30578
7.5016
7.69846
7.89901
8.10268
8.29739
8.46829
8.60521
8.71058
8.77884
8.80649
8.80067
8.7605
8.68093
8.55277
8.35688
8.0327
7.44914
511.918
525.274
4.47253
4.73519
4.95814
5.14877
5.31673
5.47701
5.63896
5.80275
5.96772
6.14093
6.32374
6.51603
6.71302
6.91002
7.10569
7.3018
7.50298
7.71377
7.92503
8.12369
8.30836
8.47107
8.60361
8.70219
8.76603
8.79359
8.78741
8.74601
8.6654
8.53605
8.34242
8.02229
7.45429
512.165
525.278
4.47413
4.73617
4.95691
5.1452
5.31219
5.47177
5.63148
5.79324
5.96263
6.14442
6.33752
6.53623
6.73486
6.93077
7.1274
7.32977
7.53887
7.74421
7.94048
8.12418
8.29216
8.44128
8.56822
8.66842
8.7361
8.7705
8.76837
8.7325
8.65399
8.5228
8.32514
8.00127
7.43382
512.317
525.289
4.5126
4.79283
5.01804
5.20332
5.36769
5.52641
5.6878
5.85725
6.03814
6.22857
6.42354
6.61779
6.80974
7.00143
7.19367
7.38638
7.57954
7.76773
7.9498
8.12383
8.28776
8.43689
8.56634
8.67014
8.7349
8.75764
8.7466
8.70792
8.62704
8.49395
8.29351
7.96502
7.3948
512.397
525.305
4.57574
4.88816
5.13238
5.32574
5.49543
5.65928
5.82374
5.99326
6.16998
6.35193
6.53638
6.72167
6.90725
7.09246
7.27621
7.45711
7.63507
7.8087
7.97645
8.13864
8.29504
8.44255
8.57225
8.66903
8.73143
8.75253
8.74197
8.69967
8.61418
8.47587
8.26725
7.92583
7.34037
512.368
525.314
4.6024
4.94203
5.21205
5.42117
5.60073
5.77379
5.94707
6.12068
6.29636
6.47572
6.65734
6.83964
7.02164
7.20219
7.37953
7.55162
7.71753
7.87981
8.0388
8.19786
8.35625
8.50205
8.61697
8.69647
8.74258
8.74907
8.72997
8.68023
8.5894
8.44768
8.23466
7.88566
7.2895
512.269
525.316
4.60214
4.94645
5.23609
5.47106
5.6686
5.8536
6.03827
6.22453
6.41153
6.59813
6.78314
6.96521
7.14402
7.32037
7.49288
7.65889
7.81818
7.97426
8.13048
8.29105
8.45216
8.59559
8.70158
8.76114
8.76807
8.753
8.71971
8.66298
8.57076
8.43168
8.22402
7.88104
7.28271
512.208
525.315
4.57734
4.92068
5.22348
5.474
5.68102
5.87613
6.07517
6.2741
6.47221
6.66904
6.86386
7.05549
7.24238
7.42271
7.59505
7.75879
7.9127
8.06176
8.21589
8.37669
8.53278
8.66336
8.74285
8.76984
8.75741
8.71885
8.67904
8.62544
8.54175
8.41448
8.22101
7.88465
7.2863
512.321
525.317
4.55654
4.88578
5.19105
5.45481
5.67294
5.87759
6.08765
6.29881
6.50751
6.71445
6.91919
7.1207
7.3181
7.50778
7.68616
7.85009
7.99778
8.14044
8.29418
8.45105
8.59133
8.69383
8.75628
8.76304
8.72454
8.67061
8.62732
8.58146
8.51134
8.39937
8.22411
7.90963
7.33489
512.522
525.327
4.55724
4.88136
5.17735
5.43321
5.65712
5.87378
6.09345
6.3152
6.53701
6.75468
6.9663
7.17121
7.36794
7.5549
7.73017
7.89145
8.03584
8.17434
8.31939
8.46803
8.59844
8.68762
8.71395
8.68751
8.62668
8.56458
8.53045
8.50617
8.46144
8.37628
8.23102
7.96072
7.42515
512.834
525.342
4.58562
4.90953
5.18884
5.42685
5.64389
5.86187
6.08553
6.31516
6.54024
6.75929
6.97136
7.1758
7.3723
7.55909
7.73439
7.89608
8.04153
8.17953
8.3192
8.44824
8.54407
8.59567
8.59745
8.55068
8.47698
8.4185
8.40951
8.41685
8.40694
8.35271
8.2393
8.01093
7.51923
513.218
525.364
4.65067
4.98918
5.25149
5.47146
5.68151
5.89376
6.10796
6.32522
6.5472
6.76488
6.97375
7.17461
7.36704
7.55036
7.72275
7.88162
8.02351
8.15235
8.27295
8.37534
8.44372
8.46941
8.44829
8.38422
8.30675
8.2646
8.27195
8.31256
8.34057
8.32037
8.23567
8.04357
7.59768
513.636
525.383
4.7169
5.07683
5.33753
5.55847
5.77376
5.98609
6.1964
6.4079
6.61458
6.81284
7.00375
7.18885
7.36816
7.54027
7.7025
7.85161
7.98344
8.09981
8.20256
8.28061
8.31613
8.30608
8.25282
8.17532
8.11362
8.10334
8.14157
8.21762
8.28478
8.28978
8.22151
8.0495
7.61807
513.767
525.396
4.7608
5.13073
5.39994
5.63399
5.86036
6.07513
6.27866
6.47275
6.65958
6.84197
7.0215
7.19632
7.36424
7.52311
7.67048
7.80305
7.91644
8.01075
8.08497
8.127
8.12225
8.07881
8.00736
7.94461
7.9342
7.97292
8.06797
8.18579
8.27139
8.28316
8.21774
8.04115
7.61405
513.745
525.397
4.76676
5.1344
5.40445
5.64103
5.86832
6.08304
6.28578
6.47823
6.66197
6.83785
7.00644
7.1676
7.32042
7.46314
7.59314
7.70688
7.79978
7.86929
7.91245
7.91781
7.88578
7.82796
7.77301
7.76333
7.80263
7.90256
8.04163
8.18188
8.27038
8.28292
8.2098
8.02295
7.58644
513.464
525.392
4.74676
5.1038
5.37422
5.61283
5.84007
6.0527
6.25126
6.43756
6.61348
6.78041
6.93901
7.08911
7.22969
7.35892
7.4741
7.57168
7.64721
7.69654
7.71585
7.69976
7.66201
7.6246
7.61749
7.65008
7.73756
7.87845
8.0374
8.18257
8.27576
8.28362
8.20748
8.01894
7.5821
513.102
525.383
4.70274
5.04067
5.30295
5.53751
5.76222
5.97317
6.17011
6.35411
6.52654
6.68841
6.84024
6.98178
7.11196
7.22891
7.3299
7.41141
7.46915
7.49901
7.49723
7.4769
7.4562
7.45879
7.49306
7.57329
7.71174
7.87691
8.05915
8.21428
8.29727
8.29092
8.20244
8.00251
7.56352
513.032
525.376
4.66848
4.98582
5.23352
5.45819
5.67584
5.88182
6.07481
6.25499
6.42295
6.57917
6.72368
6.85595
6.97471
7.0779
7.16275
7.22574
7.26273
7.27509
7.2735
7.27487
7.29319
7.33677
7.4249
7.5548
7.72432
7.92546
8.11144
8.24678
8.30917
8.29232
8.18955
7.98121
7.53827
513.009
525.368
4.63307
4.92969
5.15919
5.36959
5.57688
5.77573
5.96346
6.13894
6.30175
6.45157
6.58785
6.70966
6.81544
6.9031
6.97005
7.01267
7.03885
7.05808
7.08495
7.12635
7.18997
7.29346
7.42166
7.59889
7.80309
7.99806
8.16067
8.27194
8.31354
8.2807
8.16853
7.94857
7.49847
512.837
525.362
4.60942
4.88769
5.09744
5.28885
5.48042
5.66752
5.84601
6.01338
6.168
6.30863
6.43411
6.54313
6.63376
6.70306
6.75753
6.8036
6.84865
6.89716
6.95821
7.04038
7.15421
7.30061
7.48644
7.69119
7.89157
8.07137
8.21459
8.30327
8.32156
8.27085
8.14125
7.90433
7.43915
512.552
525.354
4.59282
4.85844
5.04862
5.21683
5.38755
5.56123
5.72764
5.88334
6.02589
6.15237
6.2622
6.35744
6.44113
6.51748
6.58953
6.65464
6.71648
6.78723
6.87941
7.00625
7.17074
7.35982
7.56151
7.76629
7.96191
8.1313
8.25678
8.32281
8.32043
8.24897
8.10397
7.85066
7.35914
512.217
525.343
4.57014
4.82821
5.01
5.16384
5.31269
5.45824
5.60055
5.7385
5.8705
5.99496
6.11035
6.21532
6.30888
6.39058
6.46096
6.52641
6.60048
6.7
6.83734
6.99795
7.17279
7.36816
7.58392
7.80314
8.00474
8.17083
8.28473
8.33354
8.3141
8.22443
8.06961
7.802
7.28648
511.968
525.329
4.52846
4.7725
4.95232
5.10755
5.25589
5.39904
5.5362
5.6659
5.78673
5.89747
5.9973
6.08589
6.16363
6.23186
6.29733
6.37566
6.48594
6.62504
6.78141
6.95404
7.14665
7.36017
7.58308
7.80688
8.01408
8.18717
8.29899
8.33666
8.30293
8.20436
8.04121
7.76701
7.25482
511.933
525.313
4.4549
4.66267
4.8256
4.9717
5.11102
5.24426
5.37219
5.49322
5.6054
5.70739
5.79867
5.87964
5.9515
6.02212
6.10916
6.22933
6.36796
6.52148
6.68999
6.87582
7.08149
7.30822
7.5505
7.79343
8.01181
8.18831
8.30217
8.33716
8.29479
8.18637
8.01454
7.73175
7.22439
512.092
525.304
4.3934
4.56225
4.70099
4.83113
4.95572
5.07551
5.19024
5.30006
5.40291
5.49658
5.58013
5.6579
5.74126
5.84799
5.98654
6.14321
6.3106
6.48466
6.66488
6.85493
7.06234
7.2891
7.52775
7.76524
7.99012
8.17837
8.29963
8.33215
8.28334
8.16604
7.98732
7.69994
7.20989
512.469
525.305
4.37868
4.53299
4.65544
4.76606
4.86875
4.96604
5.06104
5.15574
5.25193
5.3489
5.44615
5.54935
5.67297
5.81603
5.9734
6.13907
6.31022
6.48666
6.67045
6.86394
7.07217
7.29648
7.53123
7.76536
7.98636
8.17604
8.29864
8.32987
8.2725
8.14101
7.95041
7.66718
7.21318
512.975
525.313
4.39099
4.54531
4.66531
4.77255
4.87189
4.96682
5.05946
5.1514
5.24349
5.34105
5.4551
5.5924
5.74695
5.91311
6.08644
6.26345
6.44274
6.62462
6.81172
7.00671
7.21179
7.42261
7.63092
7.83203
8.02317
8.18786
8.29288
8.3149
8.24859
8.09748
7.89119
7.60553
7.18104
513.404
525.325
4.43851
4.61021
4.73997
4.85522
4.96223
5.06544
5.16795
5.27343
5.3923
5.53163
5.68369
5.84326
6.00722
6.1733
6.34046
6.50853
6.67806
6.85127
7.03114
7.21812
7.4073
7.59431
7.77576
7.94862
8.10915
8.23288
8.29311
8.28385
8.20072
8.03245
7.80855
7.51325
7.08479
513.467
525.333
4.48731
4.6825
4.82807
4.9576
5.07864
5.19565
5.3197
5.45988
5.61006
5.7636
5.91783
6.07242
6.22821
6.38514
6.54213
6.70082
6.86617
7.03981
7.21922
7.40018
7.57781
7.75056
7.92068
8.0844
8.22071
8.30379
8.31839
8.27084
8.14444
7.95554
7.71288
7.39683
6.94128
513.235
525.328
4.48882
4.70787
4.86722
5.00173
5.13494
5.2781
5.43071
5.58699
5.74436
5.90291
6.06192
6.22024
6.37705
6.53489
6.6987
6.86932
7.04321
7.21809
7.3916
7.56316
7.73362
7.90392
8.06871
8.21106
8.30812
8.34688
8.3242
8.22979
8.07322
7.86378
7.60588
7.26745
6.76954
512.592
525.324
4.47741
4.70895
4.89196
5.04876
5.19895
5.35151
5.50906
5.66948
5.8252
5.98242
6.14879
6.32144
6.49831
6.67759
6.8545
7.02607
7.19124
7.35198
7.51227
7.6797
7.85639
8.03324
8.19513
8.32108
8.39473
8.40671
8.34809
8.22001
8.03235
7.79719
7.52587
7.1841
6.68846
511.987
525.329
4.49028
4.73893
4.93809
5.10254
5.25038
5.39268
5.53517
5.6842
5.84406
6.01292
6.18936
6.37238
6.55902
6.74509
6.92358
7.09182
7.25029
7.403
7.56455
7.74776
7.94241
8.12627
8.28387
8.39736
8.44613
8.43159
8.34852
8.19423
7.97885
7.72303
7.45513
7.13233
6.6663
511.907
525.339
4.50987
4.76877
4.97084
5.12787
5.26365
5.39804
5.53929
5.68859
5.84727
6.01467
6.19103
6.3756
6.56464
6.75085
6.92938
7.09681
7.2533
7.40591
7.57319
7.76481
7.96106
8.14274
8.29827
8.40911
8.45641
8.43401
8.32537
8.13817
7.89728
7.63942
7.39418
7.09977
6.66698
512.033
525.353
4.53324
4.79694
4.99594
5.14413
5.27389
5.40334
5.53541
5.67109
5.81299
5.96656
6.13417
6.31488
6.49734
6.67723
6.85248
7.02139
7.18255
7.34852
7.53815
7.74654
7.95324
8.14045
8.29522
8.39966
8.42954
8.37661
8.23693
8.02794
7.78188
7.54686
7.33928
7.08999
6.71008
512.303
525.362
4.54667
4.81623
5.01762
5.16621
5.29473
5.42001
5.54464
5.67187
5.80402
5.94323
6.09122
6.24191
6.39967
6.5629
6.72963
6.89651
7.06004
7.23283
7.42943
7.63874
7.84273
8.02569
8.17236
8.26588
8.28687
8.22664
8.08435
7.87946
7.65206
7.45998
7.28893
7.08095
6.75245
512.55
525.37
4.56076
4.83977
5.04896
5.20436
5.33768
5.46385
5.58516
5.70475
5.82657
5.95508
6.09267
6.23682
6.38588
6.53827
6.69219
6.84889
7.00937
7.17615
7.35693
7.54602
7.7283
7.88804
8.01009
8.08026
8.08542
8.01774
7.88164
7.70077
7.53186
7.39025
7.23628
7.04023
6.74752
512.68
525.379
4.5704
4.86028
5.08243
5.25258
5.39776
5.53114
5.65686
5.77808
5.89728
6.01675
6.13858
6.26541
6.3992
6.54104
6.69074
6.84382
6.9985
7.1519
7.30644
7.46314
7.60998
7.7324
7.81657
7.84951
7.82675
7.75544
7.65028
7.54226
7.44489
7.32333
7.17158
6.96963
6.66134
512.652
525.386
4.57116
4.86377
5.0925
5.27497
5.43868
5.59008
5.72783
5.85459
5.97438
6.09059
6.20626
6.32415
6.4464
6.57438
6.7087
6.84948
6.9918
7.13024
7.25821
7.37415
7.47642
7.55464
7.59915
7.60545
7.58219
7.54316
7.5013
7.46415
7.39611
7.2753
7.10971
6.87962
6.53585
512.261
525.387
4.54932
4.83804
5.0761
5.26917
5.44028
5.59537
5.7362
5.86574
5.98731
6.10412
6.21927
6.33547
6.45467
6.57761
6.70344
6.83017
6.95473
7.07211
7.17681
7.26333
7.33106
7.38036
7.40874
7.42054
7.42786
7.4509
7.47793
7.45279
7.36951
7.23228
7.05117
6.79347
6.41317
511.771
525.381
4.49829
4.76533
5.00579
5.21043
5.39579
5.56422
5.71604
5.85351
5.97971
6.09807
6.2117
6.32323
6.43455
6.54668
6.65933
6.77087
6.87829
6.97735
7.06351
7.13317
7.18625
7.22724
7.26178
7.30248
7.36919
7.43921
7.47019
7.44257
7.34633
7.19358
6.99796
6.73493
6.37223
511.8
525.376
4.44015
4.67187
4.89509
5.09654
5.28474
5.45746
5.61424
5.75687
5.88786
6.00978
6.1252
6.23645
6.34538
6.45303
6.55934
6.66301
6.76161
6.85182
6.9303
6.99496
7.04704
7.0915
7.14533
7.22447
7.31872
7.40764
7.44532
7.41513
7.30803
7.14377
6.94479
6.68972
6.35249
512.334
525.379
4.41141
4.60037
4.79086
4.97764
5.15891
5.3292
5.48647
5.63102
5.76428
5.88812
6.00454
6.11541
6.22232
6.32629
6.42757
6.52543
6.61782
6.70187
6.77448
6.83301
6.87814
6.92684
7.00023
7.10703
7.22404
7.32168
7.37259
7.35089
7.24507
7.06933
6.86914
6.63714
6.3556
513.184
525.391
4.41077
4.58373
4.7374
4.88798
5.04515
5.20726
5.35928
5.50039
5.63166
5.75456
5.8703
5.97975
6.08396
6.18384
6.27977
6.37132
6.4562
6.52944
6.58923
6.64484
6.70629
6.78978
6.8989
7.02043
7.13421
7.22156
7.26708
7.25456
7.16174
6.99002
6.79181
6.58402
6.35313
513.934
525.404
4.43258
4.59798
4.73548
4.85788
4.98372
5.11826
5.25801
5.38654
5.50679
5.62278
5.7351
5.8396
5.93639
6.02699
6.11335
6.19438
6.27612
6.36295
6.45962
6.56107
6.66341
6.77363
6.89058
7.00186
7.09652
7.15938
7.17288
7.13565
7.02373
6.85549
6.66995
6.48512
6.28756
514.394
525.414
4.47319
4.65061
4.77576
4.87963
4.98486
5.09953
5.2184
5.33543
5.44565
5.54734
5.6399
5.73053
5.82246
5.91737
6.01644
6.12147
6.23093
6.34283
6.45436
6.56245
6.66916
6.78016
6.89223
6.99216
7.0675
7.10445
7.09247
7.01844
6.89195
6.73234
6.56755
6.40901
6.22094
514.494
525.421
4.51108
4.70862
4.84025
4.94122
5.04316
5.15215
5.26236
5.3681
5.46325
5.54929
5.63428
5.72343
5.81792
5.91875
6.02631
6.14006
6.2583
6.37819
6.49606
6.60795
6.71284
6.81363
6.90766
6.9852
7.03125
7.03348
6.98792
6.88295
6.74793
6.6075
6.47681
6.3449
6.15498
514.292
525.423
4.53186
4.74186
4.88117
4.98753
5.0959
5.21439
5.3359
5.45172
5.554
5.64054
5.72168
5.80714
5.89887
5.99783
6.10369
6.21512
6.33003
6.44524
6.55698
6.66088
6.75287
6.83473
6.90635
6.95764
6.9764
6.95356
6.87999
6.76713
6.64326
6.53343
6.43539
6.32133
6.13078
514.065
525.426
4.53693
4.75197
4.90097
5.01852
5.13916
5.27041
5.40618
5.53589
5.64976
5.74293
5.8233
5.90458
5.99119
6.0843
6.18391
6.28864
6.39591
6.50207