/*--------------------------------*- C++ -*----------------------------------*\
| =========                 |                                                 |
| \\      /  F ield         | OpenFOAM: The Open Source CFD Toolbox           |
|  \\    /   O peration     | Version:  v1906                                 |
|   \\  /    A nd           | Web:      www.OpenFOAM.com                      |
|    \\/     M anipulation  |                                                 |
\*---------------------------------------------------------------------------*/
FoamFile
{
    version     2.0;
    format      ascii;
    class       surfaceScalarField;
    location    "900";
    object      phi;
}
// * * * * * * * * * * * * * * * * * * * * * * * * * * * * * * * * * * * * * //

dimensions      [1 0 -1 0 0 0 0];
oriented        oriented;


internalField   nonuniform List<scalar> 
228225
(
-2.58123e-06
2.8721e-06
-3.94245e-07
-5.42088e-06
3.53275e-06
-6.93202e-07
-7.72816e-06
3.00459e-06
-6.97419e-07
-9.54799e-06
2.40669e-06
-5.86963e-07
-1.11034e-05
2.01076e-06
-4.55395e-07
-1.24593e-05
1.72163e-06
-3.65851e-07
-1.36768e-05
1.49629e-06
-2.78881e-07
-1.47807e-05
1.28484e-06
-1.81134e-07
-1.57866e-05
1.12318e-06
-1.17412e-07
-1.67026e-05
9.74696e-07
-5.88016e-08
-1.75307e-05
8.34801e-07
-6.77316e-09
-1.82804e-05
7.10704e-07
3.88749e-08
-1.89575e-05
5.98267e-07
7.87037e-08
-1.95665e-05
4.96066e-07
1.1287e-07
-2.01142e-05
4.06322e-07
1.41266e-07
-2.06059e-05
3.27192e-07
1.64395e-07
-2.10511e-05
2.62699e-07
1.82482e-07
-2.14642e-05
2.17261e-07
1.95704e-07
-2.1871e-05
2.02423e-07
2.04322e-07
-2.23154e-05
2.36153e-07
2.08094e-07
-2.28254e-05
3.03416e-07
2.06527e-07
-2.33844e-05
3.60922e-07
1.97953e-07
-2.39096e-05
3.43713e-07
1.81455e-07
-2.42728e-05
2.11549e-07
1.51602e-07
-2.43774e-05
-1.84183e-08
1.22962e-07
-2.41043e-05
-3.64793e-07
9.1687e-08
-2.32683e-05
-8.91824e-07
5.57299e-08
-2.16426e-05
-1.63735e-06
1.16703e-08
-1.93494e-05
-2.26504e-06
-2.82255e-08
-1.64567e-05
-2.82977e-06
-6.29019e-08
-1.30253e-05
-3.31305e-06
-1.18349e-07
-9.23369e-06
-3.63387e-06
-1.57754e-07
-5.37631e-06
-3.66694e-06
-1.90401e-07
-1.91317e-06
-3.27565e-06
-1.87473e-07
-1.79202e-06
-1.21154e-07
-4.97205e-07
3.64432e-06
-2.75305e-07
-1.43701e-06
5.0727e-06
-6.00449e-07
-2.21166e-06
4.48598e-06
-7.07103e-07
-2.62388e-06
3.49145e-06
-6.72928e-07
-2.67679e-06
2.65793e-06
-5.94674e-07
-2.50535e-06
2.05649e-06
-5.06715e-07
-2.21829e-06
1.61741e-06
-4.08577e-07
-1.88466e-06
1.26893e-06
-3.18115e-07
-1.50876e-06
9.81792e-07
-2.34919e-07
-1.11503e-06
7.37806e-07
-1.57246e-07
-7.22013e-07
5.25478e-07
-8.40921e-08
-3.36506e-07
3.38891e-07
-1.40908e-08
2.86843e-08
1.7578e-07
5.69015e-08
3.31538e-07
3.65998e-08
1.5622e-07
5.73189e-07
-7.39015e-08
2.38192e-07
7.2842e-07
-1.44951e-07
3.16543e-07
7.7353e-07
-1.73331e-07
3.90549e-07
6.78739e-07
-1.49078e-07
4.60754e-07
4.03208e-07
-4.37167e-08
5.21296e-07
-1.03018e-07
1.53995e-07
5.88017e-07
-8.43024e-07
4.07216e-07
6.35861e-07
-1.80504e-06
6.58635e-07
6.64008e-07
-2.93486e-06
8.00462e-07
6.72839e-07
-4.1664e-06
7.71066e-07
6.71853e-07
-5.39082e-06
5.73219e-07
6.3263e-07
-6.51127e-06
1.66521e-07
5.88954e-07
-7.28009e-06
-6.35257e-07
5.1206e-07
-7.66591e-06
-1.66124e-06
4.09551e-07
-7.5132e-06
-2.72617e-06
3.08267e-07
-6.83014e-06
-3.73101e-06
2.18038e-07
-5.72021e-06
-4.58566e-06
1.62567e-07
-4.29172e-06
-5.19001e-06
1.27564e-07
-2.6539e-06
-5.40869e-06
1.03768e-07
-9.99964e-07
-4.9894e-06
5.96558e-08
-2.8074e-06
1.54103e-08
-2.42147e-08
3.88364e-06
-2.15427e-07
-2.75401e-07
5.85416e-06
-5.30599e-07
-5.63333e-07
5.45319e-06
-6.79622e-07
-7.22725e-07
4.35318e-06
-7.02723e-07
-6.63263e-07
3.2639e-06
-6.6582e-07
-3.98864e-07
2.4087e-06
-6.17004e-07
1.67828e-08
1.77445e-06
-5.73085e-07
5.25703e-07
1.29407e-06
-5.34472e-07
1.06447e-06
9.40207e-07
-4.97582e-07
1.58545e-06
6.80134e-07
-4.63694e-07
2.05139e-06
4.86918e-07
-4.27769e-07
2.44576e-06
3.36479e-07
-3.92353e-07
2.74738e-06
2.29441e-07
-3.55686e-07
2.93203e-06
1.67169e-07
-3.15624e-07
2.99377e-06
1.36688e-07
-2.72728e-07
2.93611e-06
1.37651e-07
-2.2534e-07
2.74989e-06
1.88434e-07
-1.75957e-07
2.42358e-06
2.91933e-07
-1.15105e-07
1.96195e-06
4.63784e-07
-4.62772e-08
1.37486e-06
7.06829e-07
3.3874e-08
7.06473e-07
9.62266e-07
1.13e-07
2.93403e-08
1.14629e-06
1.89199e-07
-6.00793e-07
1.17455e-06
2.55821e-07
-1.16439e-06
1.02741e-06
3.07065e-07
-1.6251e-06
6.93387e-07
3.40359e-07
-2.00074e-06
2.07899e-07
3.34087e-07
-2.28414e-06
-6.27829e-07
2.75807e-07
-2.43219e-06
-1.69985e-06
1.8651e-07
-2.39199e-06
-2.86074e-06
9.4272e-08
-2.07803e-06
-4.04124e-06
-3.79824e-09
-1.51647e-06
-5.08131e-06
-6.59624e-08
-9.02964e-07
-5.69383e-06
-1.09693e-07
-3.836e-07
-5.81351e-06
-1.1453e-07
-5.37622e-08
-5.23446e-06
-8.47948e-08
-2.83161e-06
-2.95661e-08
1.18074e-07
3.9155e-06
-1.50357e-07
7.31047e-08
6.32762e-06
-4.28903e-07
-5.07045e-08
6.16805e-06
-5.91486e-07
-1.33028e-07
5.08619e-06
-6.51158e-07
-4.81859e-08
3.82779e-06
-6.49252e-07
2.45347e-07
2.74693e-06
-6.32303e-07
7.11948e-07
1.91019e-06
-6.02878e-07
1.27506e-06
1.30448e-06
-5.74056e-07
1.87057e-06
8.89268e-07
-5.45084e-07
2.44748e-06
6.19704e-07
-5.17e-07
2.97282e-06
4.53222e-07
-4.92179e-07
3.40413e-06
3.74481e-07
-4.69852e-07
3.72176e-06
3.60135e-07
-4.48885e-07
3.92637e-06
3.91298e-07
-4.29276e-07
3.99271e-06
4.776e-07
-4.07756e-07
3.91033e-06
6.04306e-07
-3.84814e-07
3.66122e-06
7.91356e-07
-3.54401e-07
3.20032e-06
1.06263e-06
-3.10409e-07
2.49684e-06
1.40915e-06
-2.42493e-07
1.55442e-06
1.79354e-06
-1.44862e-07
4.54077e-07
2.09365e-06
-3.15296e-08
-6.64439e-07
2.20001e-06
6.43587e-08
-1.72176e-06
2.10267e-06
1.28774e-07
-2.62937e-06
1.78494e-06
1.49628e-07
-3.29931e-06
1.24237e-06
1.20479e-07
-3.73897e-06
5.71923e-07
7.50792e-08
-3.98274e-06
-3.86462e-07
1.79663e-09
-4.07647e-06
-1.53665e-06
-7.01167e-08
-3.9981e-06
-2.80875e-06
-1.31052e-07
-3.71544e-06
-4.16962e-06
-1.54848e-07
-3.1457e-06
-5.52531e-06
-1.26143e-07
-2.30137e-06
-6.48181e-06
-5.67734e-08
-1.29488e-06
-6.81294e-06
-7.77097e-09
-3.6808e-07
-6.15324e-06
-8.8384e-09
-3.16882e-06
-3.08913e-08
8.69625e-08
3.94292e-06
-1.14767e-07
1.14261e-07
6.64624e-06
-3.46296e-07
1.02799e-07
6.67575e-06
-4.96617e-07
1.00794e-07
5.64764e-06
-5.5987e-07
2.11305e-07
4.28154e-06
-5.64744e-07
4.62567e-07
3.03815e-06
-5.4298e-07
8.41219e-07
2.04397e-06
-5.1295e-07
1.31187e-06
1.31208e-06
-4.7878e-07
1.83404e-06
8.14167e-07
-4.47623e-07
2.36305e-06
5.10614e-07
-4.20499e-07
2.86159e-06
3.52802e-07
-3.98678e-07
3.31358e-06
3.03512e-07
-3.81518e-07
3.73881e-06
3.05158e-07
-3.7077e-07
4.13535e-06
3.56775e-07
-3.62578e-07
4.48391e-06
4.84959e-07
-3.5651e-07
4.73717e-06
6.98666e-07
-3.48239e-07
4.84232e-06
1.01125e-06
-3.25698e-07
4.7266e-06
1.44847e-06
-2.70783e-07
4.33298e-06
1.98217e-06
-1.80021e-07
3.70171e-06
2.4928e-06
-6.85345e-08
2.97169e-06
2.80035e-06
2.28738e-08
2.25129e-06
2.84033e-06
7.9699e-08
1.58907e-06
2.67184e-06
9.26671e-08
1.01193e-06
2.30519e-06
5.64845e-08
5.13359e-07
1.75122e-06
-1.06956e-08
1.29489e-07
1.04664e-06
-9.12901e-08
-2.1491e-07
1.31127e-07
-1.73624e-07
-6.89163e-07
-8.37252e-07
-2.25548e-07
-1.22625e-06
-2.05459e-06
-2.17429e-07
-1.7721e-06
-3.48586e-06
-1.38274e-07
-2.17437e-06
-5.11954e-06
-3.83475e-09
-2.069e-06
-6.7272e-06
1.39805e-07
-1.55388e-06
-7.54474e-06
2.16393e-07
-7.40848e-07
-7.14402e-06
1.773e-07
-3.94052e-06
3.08146e-08
1.32651e-07
3.8763e-06
-6.63479e-08
2.27559e-07
6.79682e-06
-2.45768e-07
2.82904e-07
7.00376e-06
-3.83649e-07
3.19052e-07
6.06346e-06
-4.52292e-07
4.43486e-07
4.6239e-06
-4.6716e-07
6.80384e-07
3.23428e-06
-4.33433e-07
1.02911e-06
2.07937e-06
-3.84567e-07
1.46951e-06
1.20376e-06
-3.32567e-07
1.96758e-06
6.03863e-07
-2.88272e-07
2.48902e-06
2.45437e-07
-2.56745e-07
3.00036e-06
7.88179e-08
-2.37784e-07
3.51216e-06
2.23032e-08
-2.31034e-07
4.03458e-06
1.03879e-08
-2.28161e-07
4.53817e-06
8.23271e-08
-2.29699e-07
4.9986e-06
2.45958e-07
-2.22007e-07
5.37731e-06
5.15288e-07
-1.95952e-07
5.62881e-06
9.07361e-07
-1.48272e-07
5.71909e-06
1.44284e-06
-8.53512e-08
5.64565e-06
2.06674e-06
-1.18267e-08
5.47804e-06
2.61056e-06
4.92848e-08
5.2829e-06
2.9089e-06
8.61285e-08
5.1069e-06
2.92187e-06
9.39562e-08
4.99684e-06
2.71869e-06
6.2609e-08
4.94413e-06
2.35741e-06
-2.22994e-10
4.9124e-06
1.86232e-06
-8.01751e-08
4.89639e-06
1.21671e-06
-1.54897e-07
4.84022e-06
3.96329e-07
-2.09853e-07
4.56831e-06
-3.53307e-07
-2.12972e-07
3.8606e-06
-1.20426e-06
-1.43671e-07
2.80115e-06
-2.43621e-06
8.78596e-09
1.58261e-06
-4.125e-06
2.23165e-07
5.26562e-07
-6.08321e-06
4.11243e-07
-1.31103e-07
-7.35139e-06
4.6311e-07
-3.17284e-07
-7.35133e-06
3.92178e-07
-4.42506e-06
1.67227e-07
1.02811e-07
3.81532e-06
-4.2106e-08
2.24078e-07
6.86776e-06
-1.92449e-07
2.92486e-07
7.24204e-06
-3.06931e-07
2.84254e-07
6.44054e-06
-3.69116e-07
2.78103e-07
5.00291e-06
-3.73163e-07
3.35078e-07
3.50534e-06
-3.28403e-07
4.73039e-07
2.20807e-06
-2.67086e-07
6.99884e-07
1.19081e-06
-2.1435e-07
1.01168e-06
4.62882e-07
-1.71289e-07
1.39096e-06
6.15636e-09
-1.40448e-07
1.82216e-06
-2.30465e-07
-1.22351e-07
2.29958e-06
-3.41462e-07
-1.14128e-07
2.78854e-06
-3.69501e-07
-1.09581e-07
3.27176e-06
-3.02673e-07
-9.87519e-08
3.7415e-06
-1.43847e-07
-8.05217e-08
4.17986e-06
1.28262e-07
-5.1968e-08
4.55979e-06
5.3859e-07
-1.18265e-08
4.84656e-06
1.11823e-06
3.71564e-08
5.04014e-06
1.78684e-06
8.5695e-08
5.17195e-06
2.35316e-06
1.25078e-07
5.27464e-06
2.66696e-06
1.38812e-07
5.34356e-06
2.71905e-06
1.33431e-07
5.39941e-06
2.55656e-06
1.05736e-07
5.47387e-06
2.22031e-06
6.20163e-08
5.55916e-06
1.75807e-06
1.82356e-08
5.62314e-06
1.16549e-06
-1.35669e-08
5.57308e-06
4.64563e-07
-1.89617e-08
5.45603e-06
-2.62808e-07
2.58429e-08
5.15044e-06
-1.03234e-06
1.32858e-07
4.62091e-06
-2.20908e-06
3.01465e-07
3.80607e-06
-3.78913e-06
4.78033e-07
2.68079e-06
-5.58486e-06
6.26214e-07
1.49317e-06
-6.85021e-06
6.85624e-07
4.91236e-07
-6.91889e-06
5.68482e-07
-4.21425e-06
2.80406e-07
1.0026e-07
3.73825e-06
-2.33699e-08
2.27693e-07
6.87701e-06
-1.36842e-07
3.15259e-07
7.39444e-06
-2.40104e-07
3.12547e-07
6.73486e-06
-2.91766e-07
2.51363e-07
5.35441e-06
-2.905e-07
1.80507e-07
3.82051e-06
-2.44516e-07
1.23915e-07
2.43382e-06
-1.69384e-07
8.44852e-08
1.31345e-06
-8.34789e-08
8.71037e-08
4.79482e-07
-1.95014e-08
1.33568e-07
-5.44067e-08
1.38193e-08
2.27311e-07
-3.51593e-07
2.70979e-08
3.36747e-07
-4.85376e-07
3.41813e-08
4.22522e-07
-4.99685e-07
4.41005e-08
4.75697e-07
-4.13377e-07
5.71981e-08
4.64889e-07
-2.11659e-07
7.82625e-08
3.67917e-07
1.16885e-07
1.07961e-07
1.80837e-07
5.81926e-07
1.43316e-07
-5.60986e-08
1.17529e-06
1.79422e-07
-2.66692e-07
1.79062e-06
2.06385e-07
-4.11456e-07
2.27513e-06
2.22394e-07
-5.05377e-07
2.53506e-06
2.25432e-07
-5.82568e-07
2.57292e-06
2.22887e-07
-6.48305e-07
2.40463e-06
2.17147e-07
-6.78421e-07
2.03544e-06
2.14367e-07
-6.42285e-07
1.49722e-06
2.2402e-07
-6.19381e-07
8.78037e-07
2.63799e-07
-3.92555e-07
-1.07464e-07
3.44403e-07
7.55584e-08
-1.19172e-06
4.59954e-07
8.65088e-07
-2.41912e-06
5.96363e-07
1.7212e-06
-3.7845e-06
7.18443e-07
2.29706e-06
-5.1568e-06
7.91067e-07
2.23718e-06
-6.31782e-06
7.92174e-07
1.60337e-06
-6.9452e-06
7.28069e-07
7.01346e-07
-6.63739e-06
6.1968e-07
-3.84563e-06
3.32701e-07
6.77852e-08
3.67993e-06
-9.5827e-09
1.69085e-07
6.87595e-06
-1.00334e-07
2.39121e-07
7.50073e-06
-1.76418e-07
2.33729e-07
6.95181e-06
-2.11668e-07
1.29074e-07
5.65335e-06
-1.94409e-07
-5.14647e-08
4.13197e-06
-1.31067e-07
-2.68989e-07
2.69658e-06
-4.54072e-08
-4.87292e-07
1.49598e-06
3.55778e-08
-7.02604e-07
5.97694e-07
9.68854e-08
-9.47555e-07
5.56388e-08
1.34677e-07
-1.21078e-06
-2.42472e-07
1.53874e-07
-1.52174e-06
-3.37579e-07
1.62938e-07
-1.90753e-06
-2.84043e-07
1.69907e-07
-2.40046e-06
-1.0351e-07
1.82776e-07
-3.03915e-06
2.2282e-07
2.03876e-07
-3.83266e-06
6.82191e-07
2.27831e-07
-4.74125e-06
1.23786e-06
2.52264e-07
-5.64975e-06
1.81018e-06
2.73215e-07
-6.44489e-06
2.29328e-06
2.92086e-07
-7.08144e-06
2.60334e-06
3.08005e-07
-7.5904e-06
2.72056e-06
3.23137e-07
-8.00744e-06
2.64942e-06
3.40142e-07
-8.25782e-06
2.28526e-06
3.69231e-07
-8.25092e-06
1.60615e-06
4.21873e-07
-8.1112e-06
8.48222e-07
5.08728e-07
-7.46439e-06
-3.93984e-07
6.24499e-07
-6.3219e-06
-2.02628e-06
7.75475e-07
-4.84188e-06
-3.54849e-06
8.75885e-07
-3.21496e-06
-4.96991e-06
9.23027e-07
-1.67853e-06
-6.22205e-06
9.00337e-07
-4.87539e-07
-7.17277e-06
8.24286e-07
1.94229e-07
-7.70188e-06
7.01653e-07
4.63235e-07
-7.76978e-06
5.54594e-07
3.49399e-07
-6.94076e-06
4.16127e-07
-3.72855e-06
2.32311e-07
5.77417e-08
3.61733e-06
4.85267e-09
1.30185e-07
6.85446e-06
-5.09474e-08
1.80234e-07
7.55645e-06
-1.05765e-07
1.69048e-07
7.08677e-06
-1.23776e-07
5.19217e-08
5.86266e-06
-9.21872e-08
-1.55663e-07
4.35561e-06
-1.60589e-08
-4.33104e-07
2.89642e-06
7.76021e-08
-7.71384e-07
1.67606e-06
1.58202e-07
-1.17621e-06
7.90873e-07
2.11646e-07
-1.66887e-06
3.08961e-07
2.39328e-07
-2.26224e-06
9.843e-08
2.52446e-07
-2.94675e-06
8.7686e-08
2.59224e-07
-3.74362e-06
2.46099e-07
2.66703e-07
-4.69539e-06
5.69585e-07
2.78628e-07
-5.80503e-06
1.03818e-06
2.94232e-07
-7.02453e-06
1.59126e-06
3.10382e-07
-8.25379e-06
2.14163e-06
3.25421e-07
-9.3747e-06
2.59286e-06
3.38163e-07
-1.03105e-05
2.87481e-06
3.54223e-07
-1.10507e-05
2.96599e-06
3.77523e-07
-1.15918e-05
2.84872e-06
4.12903e-07
-1.18907e-05
2.46581e-06
4.824e-07
-1.18125e-05
1.62426e-06
5.82723e-07
-1.14675e-05
5.82558e-07
6.78475e-07
-1.04047e-05
-9.54434e-07
7.39795e-07
-8.83667e-06
-2.72923e-06
7.6711e-07
-7.21246e-06
-4.39537e-06
7.44769e-07
-5.68709e-06
-5.7667e-06
6.92752e-07
-4.33979e-06
-6.92327e-06
6.05978e-07
-3.21358e-06
-7.84621e-06
4.97898e-07
-2.27994e-06
-8.48295e-06
3.76492e-07
-1.44599e-06
-8.77509e-06
2.39215e-07
-6.55889e-07
-8.69359e-06
1.33714e-07
-1.03022e-07
-7.60012e-06
1.06459e-07
-3.93893e-06
1.07354e-07
4.64387e-08
3.55337e-06
1.75982e-08
9.14448e-08
6.81201e-06
-2.48947e-09
1.13505e-07
7.56572e-06
-3.12678e-08
8.8937e-08
7.14346e-06
-3.20514e-08
-1.71926e-08
5.96178e-06
7.09233e-09
-2.06884e-07
4.46586e-06
7.95276e-08
-4.85361e-07
3.01604e-06
1.58952e-07
-8.59621e-07
1.82972e-06
2.20692e-07
-1.34716e-06
1.02132e-06
2.57182e-07
-1.95591e-06
6.4271e-07
2.75064e-07
-2.68198e-06
5.39105e-07
2.85455e-07
-3.51914e-06
6.28548e-07
2.96346e-07
-4.4841e-06
9.02343e-07
3.08758e-07
-5.58223e-06
1.34472e-06
3.23037e-07
-6.76385e-06
1.88205e-06
3.37784e-07
-7.94199e-06
2.41524e-06
3.54162e-07
-9.02031e-06
2.84605e-06
3.73905e-07
-9.93561e-06
3.10655e-06
4.01592e-07
-1.06707e-05
3.17291e-06
4.36962e-07
-1.12078e-05
3.02515e-06
4.77932e-07
-1.14274e-05
2.53229e-06
5.35928e-07
-1.11496e-05
1.60357e-06
5.84357e-07
-1.06248e-05
4.93326e-07
6.06017e-07
-9.63877e-06
-9.93755e-07
5.9016e-07
-8.25609e-06
-2.82932e-06
4.91979e-07
-7.08865e-06
-4.3067e-06
4.09816e-07
-6.24866e-06
-5.56763e-06
3.32046e-07
-5.54976e-06
-6.71208e-06
2.46253e-07
-4.88679e-06
-7.73738e-06
1.5093e-07
-4.18471e-06
-8.59174e-06
4.32421e-08
-3.3776e-06
-9.21611e-06
-7.41417e-08
-2.43271e-06
-9.53361e-06
-1.86597e-07
-1.40227e-06
-9.4897e-06
-2.34569e-07
-4.65659e-07
-8.36032e-06
-1.76715e-07
-4.36027e-06
-4.43058e-08
6.95619e-08
3.4611e-06
2.28501e-08
1.22155e-07
6.7283e-06
3.12474e-08
1.31413e-07
7.53079e-06
2.58031e-08
8.5848e-08
7.15603e-06
3.31259e-08
-3.03254e-08
6.00738e-06
7.07155e-08
-2.25045e-07
4.53038e-06
1.30374e-07
-5.08438e-07
3.10948e-06
1.90147e-07
-8.95491e-07
1.98343e-06
2.33549e-07
-1.41167e-06
1.27907e-06
2.58602e-07
-2.04852e-06
1.00677e-06
2.72934e-07
-2.77309e-06
9.78029e-07
2.85792e-07
-3.59564e-06
1.14969e-06
3.01573e-07
-4.52579e-06
1.51321e-06
3.19454e-07
-5.53285e-06
2.01291e-06
3.39037e-07
-6.54499e-06
2.53414e-06
3.6022e-07
-7.47594e-06
2.963e-06
3.83348e-07
-8.25532e-06
3.21511e-06
4.10441e-07
-8.86395e-06
3.27514e-06
4.40144e-07
-9.27197e-06
3.11133e-06
4.69721e-07
-9.34475e-06
2.59683e-06
5.01274e-07
-9.01344e-06
1.68862e-06
5.12564e-07
-8.49132e-06
5.95825e-07
4.85857e-07
-7.73366e-06
-7.12356e-07
4.48328e-07
-6.75785e-06
-2.32955e-06
3.60324e-07
-6.16942e-06
-3.71522e-06
2.9777e-07
-5.74711e-06
-4.97498e-06
2.46255e-07
-5.32534e-06
-6.18258e-06
1.93456e-07
-4.83085e-06
-7.33884e-06
1.32548e-07
-4.23867e-06
-8.38872e-06
5.94342e-08
-3.54519e-06
-9.26215e-06
-2.28259e-08
-2.76254e-06
-9.8966e-06
-1.01931e-07
-1.91697e-06
-1.02199e-05
-1.58991e-07
-1.08494e-06
-1.01546e-05
-1.6671e-07
-3.74735e-07
-8.94822e-06
-1.21759e-07
-4.69435e-06
-4.06457e-08
1.00062e-07
3.34123e-06
1.99792e-08
1.92127e-07
6.59103e-06
4.53375e-08
2.19294e-07
7.44935e-06
5.4416e-08
1.73615e-07
7.13414e-06
6.77374e-08
2.73261e-08
6.05244e-06
1.01401e-07
-2.09036e-07
4.62337e-06
1.43569e-07
-5.27983e-07
3.24782e-06
1.8082e-07
-9.37575e-07
2.18638e-06
2.06847e-07
-1.45873e-06
1.57531e-06
2.25087e-07
-2.07241e-06
1.37863e-06
2.41973e-07
-2.77314e-06
1.41684e-06
2.62079e-07
-3.5798e-06
1.67044e-06
2.86083e-07
-4.48988e-06
2.11003e-06
3.13438e-07
-5.43911e-06
2.61984e-06
3.4249e-07
-6.33258e-06
3.05586e-06
3.7191e-07
-7.07408e-06
3.30559e-06
3.99031e-07
-7.64347e-06
3.36133e-06
4.23274e-07
-8.01295e-06
3.20215e-06
4.42593e-07
-8.05718e-06
2.69911e-06
4.56625e-07
-7.691e-06
1.78416e-06
4.46687e-07
-7.20603e-06
7.89426e-07
4.14429e-07
-6.7318e-06
-2.58231e-07
3.80079e-07
-6.05427e-06
-1.706e-06
3.16385e-07
-5.60592e-06
-3.04515e-06
2.67484e-07
-5.24128e-06
-4.30466e-06
2.25026e-07
-4.84776e-06
-5.54516e-06
1.76868e-07
-4.38621e-06
-6.76308e-06
1.19159e-07
-3.85735e-06
-7.91822e-06
5.07105e-08
-3.27358e-06
-8.9479e-06
-2.44132e-08
-2.64803e-06
-9.78926e-06
-9.82657e-08
-1.99109e-06
-1.03903e-05
-1.6308e-07
-1.31832e-06
-1.06816e-05
-2.10931e-07
-6.90926e-07
-1.05622e-05
-2.19502e-07
-2.11514e-07
-9.25983e-06
-1.67332e-07
-4.8443e-06
-6.15458e-08
1.25265e-07
3.20602e-06
1.00922e-08
2.59566e-07
6.41932e-06
3.75276e-08
3.22864e-07
7.33154e-06
5.46086e-08
3.0247e-07
7.08353e-06
7.1112e-08
1.7909e-07
6.08297e-06
9.29827e-08
-3.91153e-08
4.72268e-06
1.19045e-07
-3.49655e-07
3.41571e-06
1.42817e-07
-7.75466e-07
2.44814e-06
1.64199e-07
-1.3449e-06
1.9583e-06
1.86579e-07
-2.02812e-06
1.85131e-06
2.10668e-07
-2.8427e-06
1.99203e-06
2.39538e-07
-3.7945e-06
2.34871e-06
2.73683e-07
-4.811e-06
2.81532e-06
3.11383e-07
-5.76587e-06
3.22637e-06
3.48477e-07
-6.54569e-06
3.45597e-06
3.79836e-07
-7.12287e-06
3.48044e-06
4.02439e-07
-7.49508e-06
3.3147e-06
4.18987e-07
-7.57376e-06
2.85336e-06
4.27661e-07
-7.3361e-06
2.0541e-06
4.07569e-07
-6.94714e-06
1.03e-06
3.65447e-07
-6.66625e-06
1.81361e-07
3.27474e-07
-6.22319e-06
-9.72563e-07
2.71614e-07
-5.9221e-06
-2.21215e-06
2.05376e-07
-5.70245e-06
-3.40883e-06
1.44335e-07
-5.48322e-06
-4.61243e-06
8.883e-08
-5.19902e-06
-5.85341e-06
2.43142e-08
-4.81599e-06
-7.09982e-06
-4.60024e-08
-4.3259e-06
-8.28625e-06
-1.21769e-07
-3.7334e-06
-9.34276e-06
-1.97372e-07
-3.04987e-06
-1.02056e-05
-2.66919e-07
-2.30322e-06
-1.08116e-05
-3.25114e-07
-1.53083e-06
-1.10917e-05
-3.62106e-07
-7.97317e-07
-1.09474e-05
-3.47922e-07
-2.28255e-07
-9.56749e-06
-2.60837e-07
-4.96984e-06
-1.02699e-07
1.31717e-07
3.07619e-06
-1.82147e-09
2.7961e-07
6.25081e-06
2.06744e-08
3.47472e-07
7.22413e-06
3.95881e-08
3.31479e-07
7.04647e-06
5.30983e-08
2.07748e-07
6.13378e-06
7.29717e-08
-1.73095e-08
4.85716e-06
9.06359e-08
-3.59526e-07
3.64931e-06
1.08682e-07
-8.62575e-07
2.81858e-06
1.32676e-07
-1.54411e-06
2.47628e-06
1.63604e-07
-2.35292e-06
2.46255e-06
1.97647e-07
-3.28895e-06
2.68853e-06
2.39597e-07
-4.29129e-06
3.06471e-06
2.86433e-07
-5.22757e-06
3.42061e-06
3.3107e-07
-5.98024e-06
3.61282e-06
3.66299e-07
-6.52401e-06
3.61437e-06
3.8544e-07
-6.87918e-06
3.43939e-06
3.96331e-07
-6.97756e-06
3.01793e-06
3.95291e-07
-6.80757e-06
2.32082e-06
3.6273e-07
-6.52591e-06
1.4606e-06
3.12054e-07
-6.37095e-06
6.19373e-07
2.55876e-07
-6.13367e-06
-2.62864e-07
2.072e-07
-5.90459e-06
-1.33994e-06
1.38558e-07
-5.80463e-06
-2.39291e-06
8.10725e-08
-5.77291e-06
-3.47315e-06
3.2877e-08
-5.71172e-06
-4.64585e-06
-2.74687e-08
-5.56458e-06
-5.90464e-06
-9.56161e-08
-5.28052e-06
-7.21575e-06
-1.67855e-07
-4.82618e-06
-8.50593e-06
-2.34377e-07
-4.19661e-06
-9.67894e-06
-2.93109e-07
-3.43192e-06
-1.06303e-05
-3.39759e-07
-2.59044e-06
-1.12849e-05
-3.67962e-07
-1.73639e-06
-1.15799e-05
-3.65583e-07
-9.43321e-07
-1.14236e-05
-3.16411e-07
-3.02727e-07
-9.97905e-06
-2.28387e-07
-5.17176e-06
-1.00795e-07
1.74017e-07
2.92111e-06
-1.89958e-08
3.88833e-07
6.04917e-06
-1.32377e-08
5.03544e-07
7.10824e-06
1.12271e-09
5.05768e-07
7.02983e-06
1.43558e-08
3.44771e-07
6.2718e-06
2.29188e-08
4.57595e-08
5.11927e-06
3.68292e-08
-3.90987e-07
4.02275e-06
6.32337e-08
-9.83092e-07
3.30633e-06
1.04301e-07
-1.70711e-06
3.04723e-06
1.53025e-07
-2.52501e-06
3.07248e-06
2.07935e-07
-3.39288e-06
3.29073e-06
2.65639e-07
-4.20805e-06
3.56117e-06
3.18704e-07
-4.86903e-06
3.72344e-06
3.58143e-07
-5.35457e-06
3.72078e-06
3.77583e-07
-5.67428e-06
3.54992e-06
3.84189e-07
-5.78214e-06
3.17467e-06
3.72607e-07
-5.67019e-06
2.57611e-06
3.29924e-07
-5.45342e-06
1.83298e-06
2.7114e-07
-5.24861e-06
1.04493e-06
2.10938e-07
-5.16372e-06
3.74908e-07
1.59672e-07
-5.00817e-06
-5.13606e-07
9.5313e-08
-4.94891e-06
-1.43526e-06
3.61793e-08
-4.9359e-06
-2.38684e-06
-1.89417e-08
-4.91154e-06
-3.42269e-06
-7.46933e-08
-4.83623e-06
-4.58103e-06
-1.39997e-07
-4.68406e-06
-5.85121e-06
-2.05463e-07
-4.42615e-06
-7.20778e-06
-2.65723e-07
-4.03802e-06
-8.57826e-06
-3.15658e-07
-3.51362e-06
-9.85082e-06
-3.52385e-07
-2.87937e-06
-1.08907e-05
-3.73735e-07
-2.186e-06
-1.16048e-05
-3.73353e-07
-1.49228e-06
-1.19293e-05
-3.44195e-07
-8.52163e-07
-1.17788e-05
-2.84717e-07
-3.0192e-07
-1.03225e-05
-2.06539e-07
-5.37642e-06
-9.72478e-08
2.08762e-07
2.74377e-06
-3.16095e-08
5.1038e-07
5.78723e-06
-3.98494e-08
7.14752e-07
6.93576e-06
-3.20407e-08
7.88481e-07
6.9843e-06
-2.83612e-08
6.43965e-07
6.42639e-06
-1.0251e-08
3.06414e-07
5.44589e-06
1.07481e-08
-1.95786e-07
4.47771e-06
4.70635e-08
-8.34839e-07
3.84207e-06
1.03152e-07
-1.56384e-06
3.60682e-06
1.69268e-07
-2.35595e-06
3.62357e-06
2.40888e-07
-3.13747e-06
3.76449e-06
3.07668e-07
-3.81224e-06
3.87813e-06
3.57734e-07
-4.33879e-06
3.86625e-06
3.83684e-07
-4.71023e-06
3.70651e-06
3.85662e-07
-4.89126e-06
3.36874e-06
3.62162e-07
-4.87655e-06
2.84899e-06
3.1094e-07
-4.76074e-06
2.2142e-06
2.46081e-07
-4.62898e-06
1.52124e-06
1.79988e-07
-4.51766e-06
8.14183e-07
1.19439e-07
-4.41181e-06
2.00675e-07
6.84396e-08
-4.35012e-06
-5.81316e-07
6.08697e-09
-4.31771e-06
-1.41178e-06
-5.57966e-08
-4.28701e-06
-2.30239e-06
-1.15046e-07
-4.22018e-06
-3.30558e-06
-1.83819e-07
-4.0989e-06
-4.45003e-06
-2.52122e-07
-3.90055e-06
-5.73716e-06
-3.12228e-07
-3.60582e-06
-7.14285e-06
-3.5949e-07
-3.20733e-06
-8.58626e-06
-3.90301e-07
-2.71518e-06
-9.93684e-06
-4.05939e-07
-2.15841e-06
-1.10451e-05
-4.02176e-07
-1.5882e-06
-1.17985e-05
-3.7635e-07
-1.05345e-06
-1.21386e-05
-3.25192e-07
-5.87742e-07
-1.19902e-05
-2.53987e-07
-2.01706e-07
-1.05291e-05
-1.78978e-07
-5.49204e-06
-8.6077e-08
2.11516e-07
2.57775e-06
-4.58058e-08
5.53603e-07
5.52328e-06
-7.84325e-08
8.3315e-07
6.73771e-06
-8.17591e-08
9.89519e-07
6.90073e-06
-7.30438e-08
9.71878e-07
6.51109e-06
-6.73376e-08
7.32973e-07
5.72421e-06
-3.97141e-08
2.71034e-07
4.9183e-06
2.1049e-08
-3.78696e-07
4.3812e-06
1.10326e-07
-1.14612e-06
4.16781e-06
2.06182e-07
-1.96171e-06
4.14685e-06
2.92103e-07
-2.72565e-06
4.17538e-06
3.52873e-07
-3.36838e-06
4.13872e-06
3.81976e-07
-3.86489e-06
3.98211e-06
3.80486e-07
-4.19058e-06
3.68061e-06
3.51419e-07
-4.34516e-06
3.23162e-06
2.91526e-07
-4.38046e-06
2.67217e-06
2.11955e-07
-4.368e-06
2.05741e-06
1.44187e-07
-4.34782e-06
1.41563e-06
8.53026e-08
-4.33203e-06
7.6704e-07
3.12506e-08
-4.30032e-06
1.93814e-07
-2.49397e-08
-4.28091e-06
-5.11866e-07
-8.8936e-08
-4.26187e-06
-1.27682e-06
-1.54078e-07
-4.22103e-06
-2.12548e-06
-2.17811e-07
-4.13619e-06
-3.10661e-06
-2.83871e-07
-4.00147e-06
-4.24435e-06
-3.40449e-07
-3.79622e-06
-5.56107e-06
-3.81391e-07
-3.49692e-06
-7.03868e-06
-4.03533e-07
-3.08662e-06
-8.58883e-06
-4.07794e-07
-2.57379e-06
-1.00549e-05
-3.94778e-07
-1.99515e-06
-1.12567e-05
-3.6702e-07
-1.42424e-06
-1.20487e-05
-3.20662e-07
-9.16658e-07
-1.23925e-05
-2.53751e-07
-4.92009e-07
-1.22377e-05
-1.77218e-07
-1.54788e-07
-1.07474e-05
-1.18936e-07
-5.5825e-06
-6.43308e-08
1.82967e-07
2.44379e-06
-4.94371e-08
5.01017e-07
5.30117e-06
-9.63315e-08
7.86975e-07
6.55971e-06
-1.0831e-07
9.78424e-07
6.80931e-06
-1.0036e-07
1.02486e-06
6.54288e-06
-7.85836e-08
8.32689e-07
5.93932e-06
-2.33202e-08
3.74259e-07
5.30644e-06
6.99155e-08
-3.11316e-07
4.88331e-06
1.83123e-07
-1.12028e-06
4.69264e-06
2.83842e-07
-1.93911e-06
4.61513e-06
3.50295e-07
-2.67373e-06
4.53444e-06
3.75303e-07
-3.26998e-06
4.37629e-06
3.58438e-07
-3.69358e-06
4.10081e-06
3.04643e-07
-3.94633e-06
3.70313e-06
2.29982e-07
-4.08643e-06
3.20918e-06
1.623e-07
-4.17554e-06
2.65234e-06
1.08733e-07
-4.22498e-06
2.05682e-06
4.98474e-08
-4.23872e-06
1.43788e-06
-8.65815e-09
-4.22721e-06
8.24347e-07
-6.89419e-08
-4.16137e-06
2.58933e-07
-1.31066e-07
-4.11556e-06
-3.61413e-07
-1.96343e-07
-4.06194e-06
-1.07355e-06
-2.56966e-07
-3.99596e-06
-1.87348e-06
-3.18037e-07
-3.9278e-06
-2.80428e-06
-3.70527e-07
-3.85493e-06
-3.9093e-06
-4.07944e-07
-3.75727e-06
-5.23199e-06
-4.26735e-07
-3.59511e-06
-6.7753e-06
-4.25523e-07
-3.31852e-06
-8.46075e-06
-4.04642e-07
-2.89448e-06
-1.01159e-05
-3.63039e-07
-2.33751e-06
-1.1499e-05
-3.14659e-07
-1.73578e-06
-1.23983e-05
-2.52132e-07
-1.17445e-06
-1.27807e-05
-1.73052e-07
-6.72467e-07
-1.26473e-05
-9.226e-08
-2.25271e-07
-1.11412e-05
-5.33188e-08
-5.76346e-06
-4.43206e-08
1.90731e-07
2.30158e-06
-4.90234e-08
5.25606e-07
5.06446e-06
-9.86402e-08
8.39169e-07
6.35388e-06
-1.08144e-07
1.05034e-06
6.68488e-06
-8.71815e-08
1.10302e-06
6.53002e-06
-4.0261e-08
9.12774e-07
6.09477e-06
3.43646e-08
4.4295e-07
5.63654e-06
1.39308e-07
-2.38573e-07
5.32472e-06
2.39739e-07
-1.00395e-06
5.1499e-06
3.07768e-07
-1.7418e-06
5.01901e-06
3.33639e-07
-2.38095e-06
4.85219e-06
3.21081e-07
-2.88361e-06
4.60031e-06
2.78293e-07
-3.24446e-06
4.24526e-06
2.16068e-07
-3.48341e-06
3.79524e-06
1.4652e-07
-3.63132e-06
3.28024e-06
7.65388e-08
-3.70818e-06
2.72222e-06
6.68418e-09
-3.72757e-06
2.13219e-06
-5.62639e-08
-3.69932e-06
1.52749e-06
-1.18118e-07
-3.62498e-06
9.31694e-07
-1.81924e-07
-3.47231e-06
3.53051e-07
-2.46994e-07
-3.31895e-06
-2.04746e-07
-3.10243e-07
-3.16833e-06
-8.59545e-07
-3.64862e-07
-3.0355e-06
-1.59284e-06
-4.13711e-07
-2.95205e-06
-2.43965e-06
-4.48364e-07
-2.93433e-06
-3.46335e-06
-4.63978e-07
-2.97524e-06
-4.73418e-06
-4.57243e-07
-3.03727e-06
-6.28726e-06
-4.2635e-07
-3.02086e-06
-8.1042e-06
-3.73333e-07
-2.8232e-06
-1.00088e-05
-3.05145e-07
-2.42397e-06
-1.1677e-05
-2.21517e-07
-1.90189e-06
-1.27867e-05
-1.3386e-07
-1.37334e-06
-1.32721e-05
-3.73709e-08
-8.67627e-07
-1.32016e-05
4.81692e-08
-3.4219e-07
-1.17253e-05
5.81575e-08
-6.09865e-06
-7.00846e-09
1.74064e-07
2.16964e-06
-4.26803e-08
4.89132e-07
4.8378e-06
-8.89272e-08
7.83079e-07
6.15459e-06
-9.51158e-08
9.6452e-07
6.56977e-06
-6.67556e-08
9.78349e-07
6.52743e-06
-1.16651e-08
7.44447e-07
6.25357e-06
7.46706e-08
2.60254e-07
5.94676e-06
1.73566e-07
-3.76799e-07
5.71275e-06
2.48642e-07
-1.04587e-06
5.53282e-06
2.8579e-07
-1.65578e-06
5.34791e-06
2.80639e-07
-2.15157e-06
5.10829e-06
2.39326e-07
-2.51295e-06
4.7869e-06
1.74435e-07
-2.75048e-06
4.38192e-06
1.00528e-07
-2.89525e-06
3.90769e-06
3.19924e-08
-2.95903e-06
3.3808e-06
-3.71025e-08
-2.94756e-06
2.81277e-06
-1.02302e-07
-2.86922e-06
2.21957e-06
-1.65999e-07
-2.73722e-06
1.62532e-06
-2.30079e-07
-2.5536e-06
1.04188e-06
-2.94029e-07
-2.32045e-06
4.7405e-07
-3.54342e-07
-2.04842e-06
-7.01006e-08
-4.06857e-07
-1.79174e-06
-6.70374e-07
-4.46041e-07
-1.57752e-06
-1.33343e-06
-4.73824e-07
-1.4368e-06
-2.09644e-06
-4.84138e-07
-1.39972e-06
-3.02789e-06
-4.72758e-07
-1.46123e-06
-4.23802e-06
-4.34869e-07
-1.55645e-06
-5.82676e-06
-3.65494e-07
-1.62464e-06
-7.76109e-06
-2.75097e-07
-1.6236e-06
-9.84211e-06
-1.67852e-07
-1.50893e-06
-1.17296e-05
-6.22383e-08
-1.27609e-06
-1.30686e-05
4.89825e-08
-9.96563e-07
-1.37057e-05
1.54014e-07
-7.10488e-07
-1.37163e-05
2.28526e-07
-3.2157e-07
-1.23148e-05
2.00258e-07
-6.47276e-06
5.25003e-08
1.65756e-07
2.03505e-06
-3.17086e-08
4.64558e-07
4.60235e-06
-6.38877e-08
7.25355e-07
5.95078e-06
-5.74637e-08
8.52384e-07
6.4614e-06
-1.90576e-08
8.08021e-07
6.53221e-06
3.92057e-08
5.35405e-07
6.40494e-06
1.20851e-07
7.72295e-08
6.20907e-06
1.95479e-07
-4.5889e-07
6.01508e-06
2.33404e-07
-9.763e-07
5.81741e-06
2.32429e-07
-1.40846e-06
5.58599e-06
1.93687e-07
-1.72322e-06
5.29393e-06
1.28736e-07
-1.92281e-06
4.93056e-06
5.55398e-08
-2.02901e-06
4.50143e-06
-1.36883e-08
-2.05407e-06
4.01771e-06
-8.53212e-08
-2.00887e-06
3.48729e-06
-1.52044e-07
-1.90082e-06
2.91908e-06
-2.14713e-07
-1.74569e-06
2.33877e-06
-2.74667e-07
-1.55378e-06
1.76474e-06
-3.31661e-07
-1.33474e-06
1.20552e-06
-3.82998e-07
-1.09331e-06
6.5702e-07
-4.2471e-07
-8.27923e-07
1.18124e-07
-4.53952e-07
-5.85205e-07
-4.43329e-07
-4.70142e-07
-3.92361e-07
-1.05566e-06
-4.71051e-07
-2.55597e-07
-1.77937e-06
-4.54338e-07
-1.51058e-07
-2.71875e-06
-4.14253e-07
-4.97258e-08
-3.9926e-06
-3.47462e-07
7.40224e-08
-5.69089e-06
-2.60474e-07
1.76459e-07
-7.71981e-06
-1.44637e-07
2.10604e-07
-9.86887e-06
-8.19368e-09
1.51364e-07
-1.18151e-05
1.44145e-07
5.88084e-08
-1.32478e-05
2.71195e-07
-3.60249e-08
-1.3981e-05
3.69679e-07
-1.32347e-07
-1.40383e-05
4.17551e-07
-1.26926e-07
-1.26702e-05
3.48927e-07
-6.72429e-06
1.24581e-07
1.32693e-07
1.92555e-06
-2.3693e-08
3.95714e-07
4.39037e-06
-5.15155e-08
6.31445e-07
5.75741e-06
-4.27859e-08
7.3427e-07
6.35923e-06
-1.02512e-09
6.68037e-07
6.53544e-06
6.26502e-08
4.37237e-07
6.50946e-06
1.25941e-07
7.97347e-08
6.3872e-06
1.79038e-07
-3.16408e-07
6.21785e-06
1.93046e-07
-6.78524e-07
6.00861e-06
1.7058e-07
-9.58868e-07
5.74935e-06
1.1665e-07
-1.14373e-06
5.43008e-06
4.83667e-08
-1.24078e-06
5.0504e-06
-2.31226e-08
-1.25981e-06
4.61677e-06
-9.66312e-08
-1.21606e-06
4.13606e-06
-1.6242e-07
-1.124e-06
3.61547e-06
-2.20534e-07
-1.00404e-06
3.07155e-06
-2.72727e-07
-8.72694e-07
2.5256e-06
-3.18462e-07
-7.39921e-07
1.98778e-06
-3.56092e-07
-6.13525e-07
1.46202e-06
-3.83171e-07
-4.96049e-07
9.38984e-07