/*--------------------------------*- C++ -*----------------------------------*\
| =========                 |                                                 |
| \\      /  F ield         | OpenFOAM: The Open Source CFD Toolbox           |
|  \\    /   O peration     | Version:  v1906                                 |
|   \\  /    A nd           | Web:      www.OpenFOAM.com                      |
|    \\/     M anipulation  |                                                 |
\*---------------------------------------------------------------------------*/
FoamFile
{
    version     2.0;
    format      ascii;
    class       volScalarField;
    location    "900";
    object      T;
}
// * * * * * * * * * * * * * * * * * * * * * * * * * * * * * * * * * * * * * //

dimensions      [0 0 0 1 0 0 0];


internalField   nonuniform List<scalar> 
78750
(
285.971
282.465
280.496
279.639
279.289
279.106
278.975
278.87
278.787
278.718
278.66
278.614
278.577
278.548
278.525
278.509
278.497
278.494
278.496
278.501
278.508
278.514
278.519
278.523
278.523
278.525
278.49
278.402
278.207
277.9
277.48
276.906
276.105
274.966
273.292
286.325
283.274
281.347
280.338
279.891
279.703
279.616
279.567
279.536
279.518
279.511
279.513
279.527
279.553
279.591
279.638
279.694
279.76
279.839
279.936
280.071
280.265
280.523
280.823
281.134
281.435
281.676
281.749
281.687
281.465
281.086
280.539
279.781
278.633
276.854
286.706
284.202
282.435
281.329
280.733
280.445
280.316
280.267
280.26
280.275
280.304
280.343
280.393
280.45
280.516
280.589
280.668
280.75
280.836
280.931
281.04
281.169
281.312
281.467
281.628
281.793
281.945
282.006
281.95
281.743
281.373
280.83
280.086
278.95
277.158
286.954
284.804
283.188
282.075
281.389
281.006
280.805
280.706
280.663
280.652
280.656
280.674
280.703
280.743
280.792
280.852
280.925
281.016
281.135
281.294
281.498
281.728
281.967
282.225
282.487
282.715
282.884
282.946
282.9
282.694
282.309
281.763
281.021
279.86
278.063
287.101
285.187
283.701
282.614
281.878
281.438
281.194
281.067
281.006
280.982
280.979
280.987
281.004
281.03
281.065
281.112
281.181
281.288
281.452
281.686
281.962
282.244
282.539
282.863
283.187
283.474
283.715
283.881
283.927
283.794
283.41
282.759
281.948
280.8
278.953
287.201
285.443
284.054
283.003
282.263
281.81
281.554
281.418
281.353
281.326
281.32
281.326
281.342
281.367
281.403
281.456
281.539
281.668
281.861
282.12
282.402
282.685
282.98
283.288
283.584
283.856
284.082
284.242
284.327
284.289
284.005
283.361
282.441
281.188
279.344
287.283
285.662
284.379
283.387
282.658
282.202
281.943
281.81
281.749
281.725
281.719
281.721
281.729
281.741
281.759
281.789
281.843
281.941
282.102
282.322
282.562
282.803
283.052
283.312
283.57
283.812
284.024
284.194
284.307
284.284
284.016
283.385
282.454
281.186
279.357
287.361
285.875
284.709
283.795
283.092
282.639
282.376
282.241
282.181
282.159
282.153
282.153
282.154
282.156
282.162
282.176
282.21
282.281
282.404
282.576
282.768
282.968
283.187
283.425
283.659
283.871
284.036
284.124
284.107
283.943
283.551
282.928
282.114
280.962
279.129
287.427
286.064
284.999
284.156
283.487
283.041
282.778
282.644
282.589
282.572
282.57
282.57
282.569
282.568
282.572
282.589
282.632
282.714
282.836
282.99
283.161
283.355
283.571
283.784
283.955
284.043
284.034
283.902
283.661
283.302
282.83
282.23
281.443
280.256
278.423
287.488
286.236
285.254
284.472
283.837
283.401
283.14
283.007
282.955
282.943
282.944
282.944
282.942
282.941
282.95
282.983
283.05
283.156
283.294
283.449
283.617
283.805
284.007
284.17
284.234
284.227
284.123
283.933
283.658
283.29
282.822
282.233
281.44
280.228
278.404
287.531
286.362
285.445
284.712
284.111
283.694
283.446
283.326
283.285
283.281
283.284
283.285
283.286
283.295
283.325
283.39
283.493
283.629
283.78
283.944
284.134
284.354
284.551
284.683
284.726
284.702
284.576
284.356
284.041
283.637
283.148
282.558
281.767
280.545
278.718
287.568
286.467
285.601
284.911
284.343
283.951
283.725
283.622
283.594
283.594
283.6
283.607
283.62
283.653
283.717
283.819
283.953
284.102
284.264
284.459
284.705
284.956
285.142
285.249
285.26
285.184
285.019
284.769
284.437
284.028
283.544
282.97
282.203
280.995
279.159
287.607
286.575
285.759
285.109
284.575
284.209
284.003
283.915
283.896
283.902
283.915
283.935
283.972
284.037
284.14
284.273
284.419
284.58
284.78
285.04
285.302
285.499
285.621
285.647
285.595
285.465
285.262
284.991
284.654
284.251
283.774
283.199
282.418
281.185
279.341
287.648
286.69
285.926
285.318
284.821
284.476
284.281
284.199
284.183
284.195
284.22
284.263
284.338
284.451
284.592
284.743
284.905
285.106
285.361
285.616
285.806
285.919
285.952
285.917
285.815
285.651
285.428
285.147
284.804
284.397
283.92
283.35
282.576
281.355
279.522
287.686
286.798
286.082
285.514
285.05
284.726
284.546
284.48
284.479
284.511
284.568
284.661
284.788
284.937
285.091
285.254
285.451
285.69
285.925
286.104
286.218
286.263
286.261
286.203
286.092
285.926
285.703
285.419
285.073
284.664
284.193
283.638
282.884
281.675
279.845
287.727
286.912
286.239
285.706
285.274
284.968
284.804
284.758
284.782
284.848
284.953
285.093
285.249
285.405
285.568
285.758
285.981
286.203
286.381
286.506
286.586
286.613
286.598
286.537
286.425
286.258
286.028
285.73
285.364
284.936
284.447
283.88
283.115
281.893
280.055
287.771
287.035
286.413
285.924
285.53
285.244
285.091
285.056
285.1
285.197
285.336
285.499
285.663
285.832
286.026
286.243
286.458
286.64
286.772
286.857
286.9
286.902
286.861
286.777
286.642
286.453
286.204
285.89
285.512
285.073
284.58
284.018
283.274
282.079
280.25
287.814
287.158
286.591
286.149
285.794
285.523
285.37
285.336
285.395
285.519
285.68
285.855
286.041
286.246
286.47
286.687
286.868
287.002
287.089
287.133
287.138
287.106
287.039
286.931
286.78
286.58
286.326
286.011
285.634
285.197
284.709
284.162
283.439
282.264
280.441
287.846
287.254
286.735
286.332
286.012
285.77
285.642
285.636
285.724
285.869
286.043
286.242
286.463
286.691
286.899
287.073
287.204
287.291
287.336
287.343
287.32
287.269
287.19
287.079
286.931
286.74
286.492
286.176
285.783
285.323
284.817
284.264
283.544
282.378
280.559
287.876
287.342
286.869
286.5
286.215
286.008
285.911
285.931
286.038
286.198
286.394
286.613
286.838
287.048
287.224
287.357
287.446
287.497
287.513
287.503
287.472
287.42
287.348
287.253
287.128
286.96
286.73
286.414
285.998
285.498
284.957
284.393
283.684
282.54
280.726
287.899
287.411
286.977
286.638
286.387
286.221
286.163
286.211
286.337
286.515
286.726
286.948
287.156
287.33
287.463
287.555
287.611
287.638
287.642
287.629
287.602
287.563
287.511
287.442
287.349
287.214
287.015
286.703
286.264
285.719
285.127
284.535
283.826
282.692
280.868
287.92
287.472
287.074
286.766
286.554
286.434
286.416
286.488
286.628
286.813
287.017
287.212
287.38
287.51
287.604
287.668
287.706
287.725
287.73
287.723
287.708
287.685
287.652
287.604
287.525
287.383
287.133
286.778
286.318
285.767
285.169
284.561
283.846
282.721
280.881
287.944
287.542
287.185
286.911
286.733
286.646
286.645
286.718
286.851
287.018
287.194
287.355
287.488
287.59
287.665
287.717
287.753
287.774
287.786
287.79
287.786
287.772
287.743
287.684
287.574
287.394
287.13
286.773
286.315
285.77
285.17
284.562
283.847
282.722
280.888
287.964
287.602
287.282
287.04
286.892
286.827
286.836
286.908
287.029
287.175
287.322
287.453
287.56
287.644
287.708
287.756
287.792
287.817
287.834
287.843
287.84
287.82
287.772
287.678
287.519
287.282
286.969
286.589
286.145
285.644
285.098
284.519
283.804
282.66
280.818
287.985
287.663
287.381
287.172
287.049
287.001
287.014
287.079
287.182
287.303
287.422
287.528
287.617
287.689
287.747
287.793
287.83
287.857
287.875
287.88
287.864
287.816
287.717
287.546
287.307
287.018
286.681
286.296
285.864
285.394
284.892
284.337
283.608
282.429
280.593
288.004
287.72
287.474
287.294
287.191
287.154
287.168
287.225
287.311
287.408
287.503
287.589
287.663
287.726
287.779
287.823
287.859
287.885
287.898
287.892
287.857
287.778
287.645
287.46
287.237
286.972
286.654
286.275
285.839
285.362
284.851
284.291
283.551
282.358
280.527
288.023
287.774
287.556
287.396
287.303
287.267
287.274
287.317
287.385
287.464
287.545
287.62
287.687
287.745
287.796
287.84
287.876
287.903
287.914
287.906
287.869
287.792
287.668
287.498
287.279
287.008
286.68
286.291
285.847
285.364
284.856
284.292
283.553
282.362
280.53
288.047
287.842
287.66
287.523
287.442
287.406
287.405
287.429
287.473
287.528
287.586
287.645
287.7
287.753
287.802
287.848
287.889
287.923
287.943
287.94
287.901
287.813
287.67
287.48
287.25
286.975
286.645
286.258
285.824
285.347
284.833
284.267
283.522
282.315
280.469
288.066
287.901
287.754
287.641
287.569
287.529
287.514
287.519
287.538
287.569
287.609
287.655
287.707
287.762
287.822
287.886
287.945
287.991
288.009
287.986
287.906
287.764
287.574
287.366
287.133
286.852
286.503
286.087
285.632
285.138
284.618
284.032
283.254
282.032
280.201
288.076
287.931
287.802
287.7
287.629
287.583
287.559
287.554
287.566
287.596
287.641
287.702
287.775
287.859
287.945
288.023
288.082
288.112
288.105
288.051
287.944
287.802
287.644
287.498
287.335
287.099
286.732
286.231
285.661
285.097
284.538
283.929
283.142
281.929
280.118
288.085
287.957
287.842
287.75
287.687
287.651
287.638
287.646
287.676
287.726
287.795
287.876
287.965
288.055
288.139
288.208
288.256
288.279
288.274
288.239
288.18
288.112
288.08
288.076
288.083
288.029
287.733
287.161
286.403
285.604
284.873
284.19
283.382
282.156
280.322
288.101
288
287.908
287.839
287.8
287.789
287.8
287.832
287.883
287.949
288.026
288.107
288.188
288.265
288.332
288.386
288.424
288.447
288.452
288.444
288.425
288.415
288.424
288.454
288.484
288.424
288.168
287.657
286.907
286.022
285.139
284.347
283.507
282.28
280.406
288.123
288.062
288.007
287.97
287.958
287.968
287.997
288.042
288.099
288.165
288.235
288.306
288.373
288.435
288.489
288.533
288.567
288.591
288.606
288.614
288.619
288.626
288.629
288.61
288.533
288.366
288.054
287.554
286.856
286.011
285.133
284.326
283.483
282.269
280.381
288.144
288.127
288.11
288.104
288.116
288.143
288.182
288.231
288.286
288.345
288.406
288.465
288.522
288.573
288.618
288.657
288.688
288.712
288.73
288.74
288.732
288.691
288.588
288.4
288.109
287.71
287.215
286.643
286.012
285.332
284.61
283.898
283.105
281.914
280.032
288.162
288.18
288.197
288.218
288.248
288.286
288.331
288.38
288.433
288.488
288.542
288.595
288.645
288.691
288.733
288.77
288.799
288.811
288.794
288.735
288.609
288.38
288.063
287.67
287.21
286.698
286.163
285.635
285.114
284.592
284.071
283.516
282.804
281.641
279.823
288.176
288.222
288.264
288.306
288.35
288.398
288.448
288.501
288.556
288.61
288.664
288.717
288.767
288.812
288.85
288.871
288.863
288.814
288.716
288.528
288.239
287.893
287.516
287.112
286.691
286.277
285.877
285.463
285.021
284.553
284.056
283.51
282.796
281.626
279.811
288.189
288.26
288.324
288.384
288.442
288.501
288.56
288.62
288.68
288.738
288.794
288.847
288.894
288.93
288.939
288.913
288.85
288.73
288.527
288.262
287.964
287.65
287.321
286.978
286.623
286.257
285.872
285.463
285.027
284.562
284.075
283.535
282.821
281.645
279.833
288.205
288.305
288.395
288.475
288.549
288.621
288.691
288.76
288.827
288.891
288.951
288.998
289.012
288.992
288.938
288.843
288.651
288.396
288.106
287.82
287.534
287.232
286.926
286.627
286.331
286.03
285.713
285.368
284.987
284.57
284.113
283.601
282.899
281.712
279.894
288.231
288.376
288.5
288.608
288.706
288.799
288.885
288.965
289.033
289.077
289.077
289.041
288.978
288.85
288.601
288.267
287.917
287.617
287.357
287.123
286.906
286.712
286.525
286.322
286.098
285.85
285.574
285.267
284.926
284.544
284.111
283.609
282.899
281.693
279.875
288.263
288.465
288.643
288.795
288.921
289.024
289.105
289.143
289.138
289.096
289.023
288.836
288.507
288.118
287.795
287.544
287.38
287.242
287.116
286.992
286.862
286.714
286.541
286.341
286.114
285.859
285.579
285.27
284.931
284.554
284.133
283.626
282.892
281.664
279.852
288.314
288.609
288.843
289.01
289.124
289.194
289.21
289.182
289.109
288.948
288.655
288.307
288.001
287.778
287.636
287.533
287.449
287.38
287.319
287.255
287.17
287.053
286.89
286.678
286.424
286.136
285.826
285.496
285.146
284.767
284.34
283.808
283.019
281.749
279.951
288.321
288.638
288.906
289.096
289.213
289.261
289.25
289.184
289.056
288.859
288.609
288.365
288.188
288.084
288.013
287.952
287.905
287.878
287.867
287.858
287.832
287.773
287.644
287.431
287.145
286.808
286.447
286.067
285.669
285.249
284.786
284.222
283.4
282.105
280.306
288.314
288.627
288.9
289.093
289.211
289.276
289.298
289.268
289.181
289.058
288.93
288.845
288.806
288.762
288.688
288.587
288.484
288.4
288.341
288.31
288.286
288.218
288.093
287.912
287.672
287.372
287.007
286.603
286.171
285.714
285.219
284.637
283.816
282.515
280.693
288.301
288.583
288.838
289.047
289.192
289.272
289.311
289.328
289.323
289.295
289.257
289.209
289.129
289.021
288.895
288.769
288.653
288.557
288.478
288.406
288.327
288.229
288.097
287.92
287.69
287.406
287.073
286.696
286.282
285.831
285.334
284.758
283.956
282.66
280.807
288.294
288.56
288.78
288.946
289.061
289.137
289.17
289.161
289.106
289.027
288.928
288.828
288.737
288.659
288.6
288.556
288.518
288.475
288.417
288.339
288.238
288.111
287.956
287.771
287.553
287.301
287.013
286.674
286.28
285.833
285.336
284.761
283.962
282.667
280.809
288.233
288.385
288.501
288.581
288.631
288.657
288.668
288.671
288.673
288.672
288.666
288.651
288.627
288.599
288.565
288.519
288.457
288.372
288.265
288.142
288.005
287.856
287.695
287.52
287.323
287.092
286.817
286.501
286.138
285.726
285.254
284.684
283.875
282.573
280.72
288.208
288.313
288.403
288.481
288.546
288.596
288.631
288.653
288.664
288.667
288.66
288.644
288.617
288.575
288.516
288.441
288.352
288.253
288.15
288.042
287.93
287.809
287.672
287.512
287.321
287.089
286.811
286.484
286.106
285.68
285.198
284.618
283.797
282.492
280.653
288.207
288.312
288.405
288.49
288.56
288.615
288.652
288.675
288.686
288.684
288.67
288.646
288.613
288.568
288.511
288.44
288.359
288.274
288.189
288.101
288.01
287.909
287.791
287.647
287.465
287.235
286.949
286.605
286.208
285.763
285.264
284.67
283.834
282.523
280.69
288.204
288.306
288.396
288.478
288.548
288.604
288.645
288.673
288.688
288.691
288.682
288.663
288.637
288.604
288.563
288.515
288.464
288.41
288.355
288.298
288.237
288.164
288.074
287.959
287.799
287.579
287.287
286.92
286.49
286.011
285.485
284.87
284.02
282.695
280.851
288.202
288.3
288.386
288.46
288.522
288.576
288.621
288.657
288.681
288.695
288.699
288.694
288.682
288.665
288.646
288.625
288.602
288.579
288.551
288.517
288.473
288.414
288.332
288.213
288.046
287.824
287.536
287.171
286.721
286.196
285.614
284.964
284.104
282.762
280.878
288.203
288.301
288.383
288.448
288.502
288.552
288.597
288.636
288.667
288.69
288.704
288.713
288.715
288.712
288.706
288.696
288.68
288.655
288.621
288.577
288.52
288.446
288.348
288.218
288.047
287.825
287.54
287.178
286.731
286.203
285.616
284.964
284.107
282.765
280.881
288.206
288.309
288.391
288.451
288.501
288.547
288.589
288.626
288.657
288.683
288.702
288.713
288.719
288.719
288.713
288.701
288.681
288.652
288.612
288.558
288.488
288.397
288.279
288.127
287.935
287.694
287.397
287.037
286.61
286.11
285.534
284.876
284.017
282.678
280.763
288.212
288.326
288.412
288.47
288.516
288.558
288.596
288.63
288.658
288.682
288.699
288.71
288.715
288.713
288.703
288.683
288.652
288.608
288.548
288.467
288.362
288.227
288.058
287.848
287.594
287.294
286.946
286.554
286.116
285.632
285.089
284.451
283.584
282.246
280.353
288.22
288.348
288.444
288.504
288.548
288.587
288.62
288.649
288.672
288.69
288.701
288.706
288.704
288.693
288.671
288.634
288.58
288.506
288.409
288.285
288.131
287.945
287.724
287.468
287.174
286.847
286.485
286.086
285.646
285.163
284.634
284.027
283.214
281.943
280.109
288.229
288.374
288.481
288.547
288.592
288.627
288.656
288.679
288.695
288.704
288.705
288.699
288.684
288.656
288.612
288.546
288.457
288.345
288.209
288.05
287.866
287.668
287.456
287.229
286.984
286.704
286.383
286.013
285.598
285.136
284.618
284.017
283.206
281.935
280.102
288.237
288.394
288.513
288.588
288.635
288.668
288.691
288.706
288.712
288.71
288.699
288.678
288.645
288.596
288.527
288.432
288.315
288.181
288.04
287.896
287.755
287.599
287.423
287.218
286.979
286.699
286.381
286.007
285.586
285.121
284.604
284.003
283.188
281.916
280.088
288.239
288.399
288.523
288.607
288.656
288.686
288.704
288.712
288.71
288.697
288.673
288.638
288.589
288.523
288.436
288.331
288.219
288.112
288.003
287.887
287.761
287.622
287.459
287.263
287.022
286.729
286.381
285.99
285.56
285.092
284.578
283.984
283.175
281.904
280.081
288.237
288.394
288.518
288.603
288.654
288.683
288.698
288.699
288.688
288.666
288.632
288.587
288.53
288.457
288.373
288.288
288.202
288.115
288.026
287.934
287.832
287.712
287.565
287.379
287.145
286.852
286.498
286.088
285.637
285.158
284.646
284.062
283.264
281.99
280.169
288.232
288.38
288.498
288.583
288.635
288.662
288.672
288.667
288.65
288.622
288.586
288.54
288.484
288.421
288.357
288.291
288.226
288.161
288.096
288.023
287.939
287.836
287.707
287.54
287.322
287.039
286.687
286.276
285.819
285.332
284.814
284.226
283.417
282.128
280.299
288.224
288.357
288.464
288.542
288.592
288.619
288.628
288.623
288.606
288.581
288.548
288.507
288.463
288.417
288.369
288.322
288.276
288.23
288.179
288.12
288.049
287.959
287.842
287.686
287.474
287.192
286.841
286.43
285.976
285.488
284.964
284.363
283.537
282.231
280.393
288.213
288.325
288.416
288.485
288.532
288.56
288.573
288.573
288.563
288.544
288.519
288.49
288.458
288.427
288.395
288.364
288.331
288.295
288.253
288.202
288.136
288.048
287.925
287.748
287.509
287.216
286.877
286.49
286.049
285.567
285.044
284.444
283.619
282.311
280.468
288.2
288.289
288.362
288.419
288.461
288.49
288.507
288.514
288.512
288.503
288.489
288.472
288.454
288.435
288.416
288.395
288.37
288.34
288.302
288.251
288.182
288.083
287.94
287.751
287.509
287.216
286.878
286.499
286.078
285.607
285.091
284.498
283.68
282.371
280.523
288.186
288.251
288.305
288.349
288.383
288.408
288.427
288.439
288.445
288.447
288.445
288.442
288.437
288.43
288.421
288.408
288.389
288.362
288.325
288.271
288.195
288.085
287.937
287.742
287.5
287.211
286.876
286.499
286.085
285.634
285.13
284.538
283.712
282.408
280.559
288.18
288.236
288.282
288.319
288.345
288.366
288.383
288.397
288.409
288.418
288.425
288.429
288.431
288.43
288.425
288.416
288.4
288.374
288.335
288.278
288.194
288.076
287.913
287.708
287.464
287.184
286.86
286.493
286.085
285.636
285.136
284.542
283.713
282.41
280.568
288.181
288.24
288.289
288.327
288.353
288.372
288.388
288.401
288.413
288.423
288.431
288.438
288.442
288.443
288.441
288.432
288.416
288.388
288.347
288.285
288.192
288.064
287.898
287.698
287.463
287.188
286.87
286.505
286.096
285.645
285.143
284.549
283.72
282.421
280.587
288.188
288.262
288.324
288.37
288.398
288.416
288.43
288.442
288.453
288.463
288.471
288.477
288.481
288.481
288.476
288.465
288.445
288.417
288.374
288.312
288.223
288.104
287.957
287.782
287.571
287.312
286.995
286.621
286.197
285.73
285.218
284.619
283.788
282.489
280.658
288.2
288.298
288.381
288.441
288.478
288.498
288.513
288.524
288.534
288.541
288.546
288.548
288.547
288.543
288.533
288.518
288.496
288.468
288.432
288.383
288.315
288.228
288.119
287.978
287.792
287.543
287.219
286.822
286.368
285.875
285.343
284.728
283.886
282.583
280.756
288.213
288.335
288.438
288.515
288.564
288.593
288.612
288.625
288.634
288.638
288.639
288.637
288.631
288.622
288.608
288.59
288.569
288.547
288.522
288.492
288.452
288.398
288.319
288.204
288.035
287.792
287.46
287.036
286.542
286.01
285.45
284.823
283.983
282.689
280.867
288.224
288.367
288.487
288.575
288.633
288.672
288.7
288.718
288.729
288.733
288.732
288.727
288.718
288.706
288.691
288.674
288.657
288.641
288.627
288.613
288.593
288.559
288.503
288.41
288.265
288.044
287.724
287.29
286.759
286.177
285.58
284.942
284.109
282.816
280.989
288.236
288.399
288.533
288.625
288.688
288.734
288.769
288.793
288.807
288.814
288.814
288.81
288.801
288.789
288.776
288.762
288.749
288.739
288.731
288.725
288.717
288.697
288.658
288.59
288.478
288.301
288.026
287.611
287.058
286.417
285.762
285.095
284.256
282.956
281.109
288.249
288.434
288.578
288.672
288.738
288.79
288.829
288.858
288.876
288.886
288.89
288.888
288.881
288.872
288.862
288.852
288.842
288.836
288.832
288.83
288.825
288.81
288.779
288.721
288.621
288.443
288.147
287.727
287.17
286.51
285.812
285.122
284.281
282.981
281.12
288.261
288.464
288.617
288.715
288.786
288.843
288.887
288.921
288.944
288.958
288.966
288.967
288.965
288.959
288.952
288.945
288.938
288.934
288.931
288.928
288.921
288.901
288.861
288.787
288.655
288.447
288.146
287.721
287.168
286.508
285.815
285.121
284.281
282.984
281.115
288.268
288.484
288.644
288.747
288.824
288.888
288.938
288.978
289.007
289.028
289.041
289.047
289.049
289.047
289.044
289.039
289.035
289.03
289.026
289.019
289.004
288.973
288.915
288.817
288.655
288.425
288.091
287.639
287.073
286.421
285.736
285.041
284.191
282.882
280.998
288.272
288.495
288.659
288.768
288.851
288.921
288.978
289.024
289.061
289.089
289.108
289.121
289.128
289.131
289.131
289.129
289.126
289.12
289.112
289.099
289.074
289.03
288.954
288.825
288.637
288.356
287.97
287.475
286.881
286.219
285.533
284.836
283.982
282.672
280.795
288.273
288.5
288.668
288.781
288.869
288.944
289.007
289.06
289.103
289.138
289.164
289.184
289.197
289.205
289.209
289.209
289.206
289.199
289.188
289.168
289.134
289.073
288.97
288.816
288.587
288.268
287.853
287.342
286.746
286.088
285.408
284.726
283.896
282.61
280.746
288.273
288.501
288.673
288.791
288.884
288.963
289.031
289.089
289.138
289.178
289.21
289.235
289.254
289.267
289.274
289.277
289.274
289.266
289.25
289.222
289.17
289.083
288.953
288.759
288.49
288.143
287.719
287.222
286.658
286.038
285.39
284.721
283.892
282.603
280.735
288.276
288.508
288.685
288.807
288.903
288.986
289.057
289.119
289.171
289.216
289.252
289.281
289.304
289.32
289.33
289.333
289.329
289.317
289.292
289.243
289.166
289.043
288.863
288.616
288.306
287.939
287.521
287.052
286.53
285.953
285.334
284.673
283.834
282.525
280.644
288.281
288.524
288.708
288.834
288.933
289.019
289.093
289.157
289.211
289.258
289.296
289.328
289.352
289.369
289.378
289.379
289.368
289.341
289.295
289.214
289.083
288.892
288.643
288.345
288.009
287.641
287.241
286.802
286.315
285.775
285.186
284.538
283.701
282.394
280.516
288.291
288.553
288.748
288.88
288.982
289.069
289.144
289.208
289.263
289.309
289.347
289.377
289.399
289.412
289.414
289.4
289.371
289.318
289.22
289.062
288.842
288.575
288.279
287.967
287.642
287.296
286.924
286.516
286.06
285.552
284.994
284.374
283.558
282.272
280.411
288.305
288.591
288.802
288.942
289.048
289.136
289.21
289.273
289.325
289.368
289.401
289.425
289.437
289.435
289.418
289.379
289.308
289.182
288.985
288.734
288.46
288.176
287.903
287.637
287.364
287.072
286.742
286.36
285.924
285.437
284.904
284.304
283.499
282.215
280.371
288.32
288.632
288.861
289.012
289.125
289.215
289.287
289.345
289.391
289.426
289.449
289.456
289.448
289.42
289.366
289.274
289.119
288.893
288.634
288.385
288.165
287.978
287.789
287.582
287.345
287.068
286.741
286.359
285.922
285.437
284.906
284.307
283.501
282.217
280.376
288.332
288.666
288.911
289.077
289.199
289.292
289.362
289.414
289.449
289.468
289.469
289.452
289.413
289.346
289.24
289.074
288.854
288.632
288.448
288.291
288.139
287.986
287.823
287.639
287.422
287.158
286.834
286.444
285.997
285.505
284.978
284.386
283.58
282.294
280.463
288.34
288.689
288.943
289.122
289.255
289.351
289.417
289.458
289.476
289.475
289.452
289.407
289.338
289.236
289.087
288.907
288.734
288.587
288.45
288.323
288.205
288.089
287.967
287.826
287.651
287.422
287.116
286.722
286.25
285.731
285.186
284.588
283.777
282.476
280.645
288.344
288.695
288.954
289.14
289.277
289.372
289.433
289.464
289.469
289.449
289.408
289.348
289.261
289.141
289.002
288.861
288.733
288.613
288.507
288.413
288.33
288.252
288.172
288.08
287.957
287.783
287.518
287.133
286.635
286.074
285.486
284.857
284.023
282.698
280.85
288.345
288.695
288.953
289.137
289.272
289.363
289.416
289.435
289.427
289.397
289.346
289.272
289.175
289.064
288.949
288.838
288.736
288.642
288.561
288.494
288.436
288.383
288.329
288.261
288.159
287.993
287.747
287.408
286.951
286.379
285.753
285.092
284.24
282.9
281.029
288.345
288.694
288.942
289.115
289.237
289.313
289.349
289.352
289.327
289.278
289.206
289.12
289.027
288.933
288.844
288.761
288.688
288.625
288.57
288.522
288.478
288.432
288.372
288.288
288.167
287.99
287.741
287.408
286.978
286.442
285.826
285.158
284.309
282.973
281.076
288.337
288.665
288.889
289.036
289.131
289.18
289.187
289.161
289.107
289.038
288.963
288.889
288.82
288.757
288.701
288.652
288.61
288.576
288.546
288.516
288.479
288.429
288.358
288.253
288.097
287.882
287.602
287.258
286.853
286.374
285.802
285.148
284.301
282.967
281.061
288.299
288.553
288.732
288.84
288.896
288.909
288.89
288.85
288.802
288.753
288.708
288.67
288.64
288.618
288.6
288.587
288.574
288.559
288.537
288.506
288.459
288.388
288.277
288.115
287.897
287.625
287.299
286.93
286.524
286.079
285.58
284.978
284.14
282.801
280.899
288.232
288.364
288.46
288.523
288.559
288.574
288.577
288.575
288.574
288.576
288.581
288.587
288.591
288.591
288.588
288.583
288.573
288.556
288.528
288.481
288.405
288.286
288.112
287.898
287.652
287.38
287.083
286.738
286.334
285.869
285.342
284.729
283.881
282.547
280.676
288.193
288.272
288.34
288.395
288.438
288.473
288.502
288.526
288.546
288.563
288.577
288.587
288.595
288.6
288.602
288.597
288.582
288.554
288.508
288.436
288.325
288.177
288.011
287.823
287.613
287.372
287.087
286.746
286.341
285.869
285.332
284.708
283.854
282.52
280.658
288.192
288.271
288.341
288.397
288.44
288.475
288.505
288.533
288.558
288.58
288.6
288.617
288.629
288.635
288.633
288.62
288.592
288.551
288.494
288.414
288.304
288.174
288.031
287.877
287.703
287.494
287.231
286.899
286.483
285.983
285.416
284.772
283.909
282.575
280.722
288.197
288.288
288.367
288.428
288.471
288.507
288.541
288.571
288.599
288.624
288.644
288.659
288.667
288.667
288.656
288.634
288.601
288.559
288.505
288.436
288.355
288.269
288.179
288.08
287.956
287.787
287.546
287.205
286.748
286.189
285.57
284.896
284.015
282.678
280.821
288.207
288.317
288.412
288.48
288.528
288.566
288.599
288.627
288.651
288.67
288.684
288.693
288.695
288.688
288.674
288.653
288.625
288.595
288.562
288.527
288.491
288.456
288.417
288.363
288.275
288.136
287.899
287.526
287.005
286.365
285.672
284.95
284.065
282.726
280.847
288.217
288.345
288.453
288.531
288.585
288.626
288.66
288.686
288.706
288.719
288.727
288.73
288.728
288.72
288.708
288.693
288.677
288.663
288.653
288.647
288.644
288.639
288.623
288.584
288.49
288.299
288.002
287.584
287.037
286.389
285.685
284.961
284.079
282.736
280.851
288.223
288.363
288.481
288.567
288.627
288.674
288.712
288.742
288.764
288.779
288.787
288.789
288.787
288.78
288.772
288.763
288.755
288.75
288.75
288.754
288.758
288.753
288.724
288.644
288.508
288.297
287.991
287.567
287.021
286.377
285.681
284.957
284.076
282.744
280.849
288.228
288.377
288.503
288.593
288.657
288.71
288.756
288.793
288.822
288.844
288.858
288.866
288.868
288.866
288.861
288.856
288.852
288.848
288.846
288.843
288.834
288.806
288.742
288.633
288.45
288.168
287.779
287.288
286.738
286.139
285.502
284.821
283.957
282.627
280.728
288.233
288.394
288.53
288.624
288.691
288.747
288.797
288.839
288.875
288.904
288.926
288.942
288.952
288.956
288.957
288.955
288.951
288.944
288.932
288.912
288.878
288.818
288.713
288.526
288.233
287.846
287.402
286.939
286.433
285.877
285.281
284.632
283.783
282.457
280.59
288.24
288.415
288.564
288.667
288.739
288.798
288.849
288.893
288.931
288.963
288.99
289.011
289.027
289.037
289.042
289.041
289.035
289.021
288.996
288.957
288.897
288.807
288.664
288.437
288.131
287.779
287.394
286.962
286.471
285.922
285.329
284.678
283.823
282.496
280.643
288.245
288.429
288.591
288.706
288.789
288.856
288.911
288.957
288.996
289.029
289.057
289.079
289.097
289.109
289.115
289.113
289.104
289.083
289.049
288.997
288.927
288.833
288.698
288.501
288.259
287.988
287.678
287.3
286.825
286.256
285.633
284.965
284.1
282.773
280.933
288.246
288.433
288.602
288.729
288.824
288.903
288.968
289.021
289.064
289.099
289.128
289.151
289.168
289.18
289.185
289.182
289.171
289.149
289.113
289.065
289.006
288.935
288.846
288.73
288.592
288.426
288.205
287.888
287.435
286.835
286.142
285.422
284.537
283.2
281.351
288.246
288.432
288.603
288.735
288.84
288.931
289.008
289.072
289.125
289.167
289.199
289.224
289.242
289.253
289.258
289.255
289.245
289.226
289.198
289.161
289.119
289.075
289.025
288.967
288.894
288.795
288.641
288.392
287.991
287.4
286.642
285.839
284.914
283.573
281.704
288.247
288.435
288.605
288.737
288.843
288.94
289.029
289.107
289.172
289.223
289.262
289.292
289.313
289.326
289.332
289.331
289.323
289.308
289.286
289.259
289.229
289.196
289.16
289.114
289.052
288.965
288.833
288.626
288.292
287.768
287.02
286.145
285.174
283.852
281.96
288.252
288.448
288.623
288.753
288.856
288.952
289.047
289.137
289.214
289.273
289.318
289.353
289.378
289.394
289.402
289.403
289.397
289.384
289.366
289.342
289.316
289.286
289.248
289.197
289.126
289.027
288.883
288.669
288.344
287.847
287.129
286.247
285.28
283.999
282.092
288.26
288.472
288.656
288.789
288.891
288.986
289.082
289.173
289.254
289.318
289.366
289.403
289.43
289.449
289.459
289.461
289.457
289.446
289.428
289.405
289.378
289.345
289.303
289.245
289.164
289.052
288.894
288.664
288.324
287.815
287.093
286.219
285.266
283.993
282.087
288.266
288.488
288.68
288.817
288.921
289.019
289.119
289.213
289.296
289.362
289.41
289.447
289.474
289.494
289.505
289.509
289.505
289.495
289.478
289.454
289.425
289.39
289.347
289.286
289.203
289.087
288.925
288.683
288.31
287.761
287.007
286.122
285.175
283.911
282.005
288.27
288.5
288.698
288.841
288.95
289.054
289.159
289.258
289.344
289.411
289.459
289.495
289.522
289.541
289.552
289.556
289.553