/*--------------------------------*- C++ -*----------------------------------*\
| =========                 |                                                 |
| \\      /  F ield         | OpenFOAM: The Open Source CFD Toolbox           |
|  \\    /   O peration     | Version:  v1906                                 |
|   \\  /    A nd           | Web:      www.OpenFOAM.com                      |
|    \\/     M anipulation  |                                                 |
\*---------------------------------------------------------------------------*/
FoamFile
{
    version     2.0;
    format      ascii;
    class       volVectorField;
    location    "900";
    object      U;
}
// * * * * * * * * * * * * * * * * * * * * * * * * * * * * * * * * * * * * * //

dimensions      [0 1 -1 0 0 0 0];


internalField   nonuniform List<vector> 
78750
(
(-0.00212046 0.0194282 -0.00941175)
(-0.00655861 0.0227149 -0.0170132)
(-0.0109547 0.0186935 -0.0176868)
(-0.0143281 0.0157922 -0.0150535)
(-0.0167414 0.0147397 -0.0130963)
(-0.0192908 0.0137352 -0.0108531)
(-0.0209627 0.0127524 -0.0087856)
(-0.02323 0.0108756 -0.0060737)
(-0.0247088 0.00977213 -0.00491803)
(-0.0263236 0.00872286 -0.00380665)
(-0.0276973 0.00771573 -0.0027923)
(-0.0289736 0.00672972 -0.00185821)
(-0.0301173 0.00574366 -0.000989307)
(-0.0311497 0.00473748 -0.000183999)
(-0.0320783 0.00369881 0.000566077)
(-0.0329117 0.00262487 0.00127468)
(-0.0336624 0.00151239 0.00195267)
(-0.0343467 0.000365868 0.00260356)
(-0.0349913 -0.000808363 0.00321461)
(-0.0356629 -0.00202174 0.00375103)
(-0.0364348 -0.00331863 0.00417409)
(-0.037326 -0.00478464 0.00443359)
(-0.0382481 -0.00652992 0.00449955)
(-0.0390173 -0.00860638 0.00436908)
(-0.0394696 -0.010925 0.00406565)
(-0.0392655 -0.0133763 0.00369706)
(-0.038725 -0.0151437 0.00319574)
(-0.0364087 -0.0197987 0.00212798)
(-0.0334428 -0.0220347 0.00117544)
(-0.0287966 -0.02452 0.000335559)
(-0.0239599 -0.0257171 -0.00114405)
(-0.0178141 -0.0259009 -0.00210132)
(-0.0115765 -0.0241708 -0.00287348)
(-0.00560686 -0.0200436 -0.0031087)
(-0.00118824 -0.0101368 -0.00222358)
(-2.17717e-05 0.0399556 -0.00663363)
(-0.00158285 0.0522632 -0.0145815)
(-0.00311767 0.045088 -0.0175621)
(-0.00410491 0.0354016 -0.0173211)
(-0.00443041 0.0280151 -0.0159551)
(-0.00419417 0.0228128 -0.0143009)
(-0.0039242 0.0188594 -0.0125411)
(-0.00336606 0.0160609 -0.0107257)
(-0.00276376 0.0136293 -0.00917179)
(-0.00214877 0.0114143 -0.00778907)
(-0.00148119 0.00934981 -0.00654608)
(-0.000862508 0.00760931 -0.00523882)
(-0.000245287 0.00611731 -0.00388328)
(0.000312102 0.00486759 -0.00245906)
(0.00075417 0.00392365 -0.000900396)
(0.00108856 0.00326356 0.000782243)
(0.00125883 0.00292355 0.00251156)
(0.00123733 0.00300085 0.00448043)
(0.000979776 0.00380965 0.00665261)
(0.000342881 0.00573014 0.00911468)
(-0.000686609 0.00851044 0.0116372)
(-0.00210123 0.0112899 0.01396)
(-0.00385421 0.0127791 0.0159384)
(-0.00584065 0.0120814 0.0173928)
(-0.00781827 0.00940407 0.0182422)
(-0.00975885 0.00436085 0.0182907)
(-0.0115342 -0.00580736 0.0167127)
(-0.0123698 -0.0174111 0.0141416)
(-0.0123574 -0.0288147 0.01168)
(-0.0122481 -0.0387481 0.00983024)
(-0.0102535 -0.0481387 0.00848191)
(-0.00810164 -0.0547395 0.00704143)
(-0.00578516 -0.0568801 0.005846)
(-0.00288216 -0.0517599 0.00377863)
(-0.000476556 -0.0283758 0.0012096)
(0.000155089 0.0420614 -0.00532445)
(-0.000165025 0.0603085 -0.0129865)
(-0.000716738 0.0539689 -0.0168541)
(-0.00113031 0.0416811 -0.0179494)
(-0.00122414 0.0307931 -0.017504)
(-0.000914686 0.0228235 -0.0164621)
(-0.000406232 0.0172003 -0.0152373)
(0.000436051 0.0124876 -0.0143125)
(0.0012805 0.00875718 -0.0133985)
(0.00217534 0.0057548 -0.0125053)
(0.00295515 0.00327478 -0.011561)
(0.00368464 0.00103837 -0.0106862)
(0.00426133 -0.000934877 -0.00981287)
(0.00466377 -0.00263591 -0.0088935)
(0.00487017 -0.00402456 -0.00787104)
(0.00487518 -0.0048682 -0.00665182)
(0.00468071 -0.00507263 -0.00516465)
(0.00427118 -0.00451008 -0.00330994)
(0.00364908 -0.00295052 -0.000900787)
(0.0027515 -0.000556166 0.00222766)
(0.00172965 0.00213565 0.00538845)
(0.000564357 0.00472871 0.00842773)
(-0.000527029 0.00611415 0.0104909)
(-0.00151346 0.00600938 0.0115707)
(-0.00233837 0.00435752 0.0117155)
(-0.00299073 0.000681235 0.0103128)
(-0.00356784 -0.00651353 0.00723286)
(-0.00393805 -0.0174461 0.00362025)
(-0.00416151 -0.029592 0.000803808)
(-0.00370497 -0.0416131 -0.00154839)
(-0.00297075 -0.0507959 -0.00210928)
(-0.0019491 -0.0573505 -0.00214037)
(-0.000994986 -0.0596467 -0.00199451)
(-0.000262155 -0.0548966 -0.0014404)
(1.21288e-05 -0.0307248 -0.000304435)
(0.000194949 0.0438733 -0.0038914)
(0.000243799 0.0684203 -0.0107151)
(2.68373e-05 0.0651808 -0.0146721)
(-0.00019604 0.0529201 -0.0163923)
(-0.000237751 0.0397957 -0.0165691)
(8.87737e-05 0.0290165 -0.0159401)
(0.000708829 0.0207804 -0.0149348)
(0.0015927 0.0149654 -0.0140323)
(0.00256202 0.0109532 -0.0131973)
(0.00352695 0.00825958 -0.0124274)
(0.00444481 0.0064938 -0.0117125)
(0.00523533 0.0054036 -0.011034)
(0.00585558 0.0049938 -0.0103743)
(0.00629568 0.00529347 -0.00971774)
(0.00650401 0.00602884 -0.00912826)
(0.00651194 0.00685968 -0.00854884)
(0.00625672 0.00809288 -0.00767435)
(0.00570443 0.00976296 -0.0062192)
(0.00476346 0.0119549 -0.00373116)
(0.00341393 0.0149407 -0.000139433)
(0.00165766 0.0179234 0.00364815)
(-0.000237989 0.0194589 0.00601044)
(-0.00201256 0.0188356 0.00641261)
(-0.00363678 0.0158163 0.00488414)
(-0.00500583 0.010188 0.00171685)
(-0.00591983 0.00322189 -0.000814319)
(-0.0064732 -0.00791023 -0.00337614)
(-0.00678702 -0.0204416 -0.00453666)
(-0.0067999 -0.0335683 -0.00461388)
(-0.00645507 -0.0472067 -0.00384953)
(-0.00569273 -0.0606975 -0.00254112)
(-0.00454899 -0.0672593 -0.00127277)
(-0.00299106 -0.0672558 -0.000723668)
(-0.00128613 -0.0590285 -0.000468484)
(-2.37532e-05 -0.0307219 -0.000605785)
(0.000109715 0.0437938 -0.00306557)
(0.000201837 0.071926 -0.00871632)
(0.000177477 0.0708715 -0.0123075)
(0.000133471 0.0589213 -0.014045)
(0.000199214 0.0443029 -0.0142936)
(0.000502968 0.0314095 -0.013665)
(0.00102134 0.0213555 -0.0127918)
(0.00172989 0.0139661 -0.0117671)
(0.002563 0.00893251 -0.0107195)
(0.00344317 0.00575965 -0.0097005)
(0.0042729 0.00391684 -0.00880113)
(0.00508689 0.00329267 -0.00800902)
(0.00576431 0.00340157 -0.00750593)
(0.00645204 0.00380428 -0.00712062)
(0.00708997 0.00490947 -0.00674341)
(0.00761177 0.00684755 -0.00622852)
(0.00795881 0.00975679 -0.00551432)
(0.00802148 0.0140091 -0.00395039)
(0.00762762 0.0193633 -0.00138043)
(0.00670792 0.0247208 0.00157088)
(0.00544521 0.0282118 0.00348954)
(0.00421548 0.0289265 0.00362332)
(0.00313569 0.0273731 0.00231229)
(0.00213294 0.023379 -0.000308606)
(0.00109458 0.0170185 -0.00328661)
(0.00041989 0.00915765 -0.00590029)
(-0.000184975 -0.000884735 -0.00752558)
(-0.000867111 -0.013748 -0.0079527)
(-0.00171988 -0.0286666 -0.00683406)
(-0.00262472 -0.0449471 -0.00429954)
(-0.00343893 -0.0611067 -0.0010176)
(-0.00360292 -0.0751895 0.00205234)
(-0.00306223 -0.0819235 0.00411402)
(-0.00199368 -0.0752154 0.0041552)
(-0.000377632 -0.0382766 0.000950622)
(0.000109131 0.043788 -0.00194024)
(0.000309414 0.0749948 -0.00655511)
(0.000416452 0.0759586 -0.00962277)
(0.000467251 0.0647606 -0.0111202)
(0.000578974 0.0491138 -0.0112908)
(0.000887719 0.0346535 -0.0104965)
(0.00136686 0.02293 -0.00923043)
(0.00202655 0.014306 -0.00774271)
(0.00281045 0.00845802 -0.00626938)
(0.00364731 0.00499716 -0.0049683)
(0.00452584 0.00342218 -0.00392931)
(0.0053238 0.00299585 -0.00328542)
(0.00618788 0.00289876 -0.00277515)
(0.00706108 0.00359196 -0.00237446)
(0.00789428 0.00527843 -0.00194529)
(0.0086065 0.00801904 -0.00135722)
(0.00921385 0.0119337 -0.000313202)
(0.00954345 0.0172638 0.000947801)
(0.00949046 0.0236266 0.00234976)
(0.00916474 0.0295176 0.00334905)
(0.00878466 0.032898 0.00323746)
(0.00855173 0.0331453 0.00235384)
(0.00832693 0.0310346 0.000399257)
(0.00820209 0.0270453 -0.00225209)
(0.00811895 0.0213003 -0.00495226)
(0.00805377 0.013734 -0.00719179)
(0.00800918 0.00373593 -0.00873718)
(0.00783031 -0.00474496 -0.00913053)
(0.00712008 -0.0167364 -0.00798888)
(0.00561587 -0.0319244 -0.00468424)
(0.0036572 -0.0514628 0.000826652)
(0.00170763 -0.0724113 0.0063828)
(2.74878e-05 -0.0833595 0.00827803)
(-0.00055481 -0.0806504 0.00824158)
(-0.000373197 -0.0468819 0.0041082)
(6.74537e-05 0.0429001 -0.00109051)
(0.000302088 0.0758888 -0.00447887)
(0.000466155 0.0787871 -0.00715845)
(0.000486165 0.0687908 -0.00857583)
(0.000430675 0.0525691 -0.00865902)
(0.000459807 0.0364771 -0.00762541)
(0.000599346 0.0229075 -0.00584862)
(0.000892541 0.0123732 -0.0041423)
(0.00135448 0.00510201 -0.0026276)
(0.00191806 0.000721635 -0.00132983)
(0.00262441 -0.00139144 -0.000400866)
(0.00333697 -0.0022164 0.000198433)
(0.00416746 -0.0023541 0.000752994)
(0.00498282 -0.00146654 0.00121001)
(0.00577276 0.000418431 0.00162768)
(0.00656971 0.00355689 0.00204211)
(0.00731272 0.00823752 0.00260935)
(0.00792612 0.0146427 0.00334249)
(0.00829496 0.0219766 0.00415203)
(0.00842799 0.0280447 0.00461847)
(0.00865942 0.0312283 0.00434261)
(0.00881098 0.0313754 0.00376131)
(0.00886059 0.0292111 0.0026142)
(0.00901624 0.0254186 0.0010812)
(0.00912573 0.0203999 -0.000518967)
(0.00920713 0.0138397 -0.00219346)
(0.00922799 0.00573206 -0.00389441)
(0.00915665 -0.00228415 -0.00460803)
(0.00890796 -0.00896306 -0.00372601)
(0.0081796 -0.0209833 -0.000228814)
(0.00708522 -0.0387894 0.00549394)
(0.0052474 -0.0609072 0.012434)
(0.00350018 -0.0772607 0.0169351)
(0.00146383 -0.0790813 0.014812)
(0.000158737 -0.0482914 0.00699751)
(8.52916e-05 0.0421083 -0.000586447)
(0.000318189 0.0763875 -0.0029726)
(0.000517185 0.0811266 -0.00522419)
(0.000555723 0.0729483 -0.0063301)
(0.000463202 0.0572445 -0.00632877)
(0.00031109 0.0403234 -0.00527754)
(0.00020814 0.0253876 -0.00357384)
(0.000112324 0.0136375 -0.00126227)
(4.533e-05 0.00497877 0.000930467)
(0.000122523 -0.000637042 0.00235761)
(0.000257786 -0.00368145 0.00328297)
(0.000448515 -0.00526929 0.00400155)
(0.000631331 -0.00573488 0.00462022)
(0.000761418 -0.00513102 0.00516667)
(0.000813485 -0.00349469 0.00568479)
(0.000749523 -0.000630226 0.00623538)
(0.000534159 0.00372126 0.00679775)
(0.000185135 0.0100471 0.00726793)
(-0.0002043 0.0173593 0.00746583)
(-0.000526681 0.0237004 0.0073092)
(-0.000711456 0.0274071 0.00688406)
(-0.000808382 0.0284021 0.00638429)
(-0.000974104 0.0270089 0.00585434)
(-0.00115566 0.0234317 0.00526103)
(-0.0011325 0.0182915 0.00476413)
(-0.00102749 0.0118047 0.00471372)
(-0.000790894 0.00452696 0.00546667)
(-0.000114202 -0.00342475 0.00728029)
(0.00102636 -0.0137169 0.0103247)
(0.00251779 -0.0276633 0.0141864)
(0.00378284 -0.044556 0.017535)
(0.00398493 -0.0616867 0.0191353)
(0.00306346 -0.0726957 0.0191691)
(0.00184301 -0.071806 0.0173452)
(0.0004845 -0.0429168 0.00911533)
(6.58533e-05 0.041342 -0.000287154)
(0.000257607 0.0763351 -0.00231011)
(0.000386781 0.0824236 -0.00372788)
(0.00044281 0.0755529 -0.00440877)
(0.000327396 0.0605395 -0.00404194)
(4.46979e-05 0.0435893 -0.00253374)
(-0.000320689 0.0280216 -0.000370713)
(-0.000703966 0.0151574 0.00189078)
(-0.00103727 0.00549633 0.00378759)
(-0.00139865 -0.000605343 0.0051427)
(-0.00178723 -0.00409412 0.00598733)
(-0.00222451 -0.00546878 0.00652752)
(-0.00276347 -0.00533837 0.00698294)
(-0.00345877 -0.00406653 0.00749702)
(-0.00441538 -0.00131644 0.008084)
(-0.00560599 0.00297064 0.00857208)
(-0.00705044 0.00875624 0.00892235)
(-0.00858395 0.0154018 0.00910722)
(-0.0100115 0.021618 0.0091592)
(-0.0112129 0.0260028 0.00917065)
(-0.0120542 0.0280985 0.00922538)
(-0.0127587 0.0280608 0.00937091)
(-0.0135211 0.0259048 0.0098007)
(-0.0136725 0.0214521 0.0109153)
(-0.0132756 0.0147558 0.0130299)
(-0.0127346 0.00775913 0.015534)
(-0.0113887 -0.00652809 0.0195831)
(-0.00900747 -0.0225486 0.021748)
(-0.0065188 -0.0393709 0.022591)
(-0.00395471 -0.0555178 0.0222454)
(-0.00173469 -0.0687785 0.02087)
(-0.000121005 -0.0769645 0.0187764)
(0.000811584 -0.0793113 0.0162272)
(0.000953179 -0.0727181 0.0131418)
(0.000310437 -0.0403363 0.00636088)
(5.85003e-05 0.0407168 0.000193258)
(0.000206668 0.0763495 -0.000817462)
(0.000300227 0.0835423 -0.00171924)
(0.000340496 0.0778204 -0.00198567)
(0.000225088 0.0638843 -0.0012764)
(-8.29851e-05 0.0471926 0.00038665)
(-0.000505499 0.0311527 0.00244837)
(-0.00101188 0.0176415 0.00437282)
(-0.00161481 0.00759543 0.0058345)
(-0.00231343 0.00181856 0.00670185)
(-0.00319697 -0.00121321 0.0072969)
(-0.0042264 -0.00190387 0.00775341)
(-0.0054308 -0.000837796 0.0082089)
(-0.00686655 0.00186424 0.00868238)
(-0.00861423 0.0062853 0.00912496)
(-0.0105908 0.0120878 0.00945384)
(-0.0126648 0.018491 0.00962677)
(-0.0146242 0.0243832 0.00970399)
(-0.016311 0.0287427 0.00987795)
(-0.0176877 0.0311165 0.0104003)
(-0.0186193 0.0316294 0.0113272)
(-0.0194827 0.0300975 0.0135643)
(-0.0197254 0.0241153 0.0167424)
(-0.0190869 0.0135028 0.0190896)
(-0.0182188 0.00354675 0.0195205)
(-0.0158994 -0.0170066 0.0180024)
(-0.0130287 -0.0389383 0.0149814)
(-0.0105195 -0.0563895 0.0116834)
(-0.00813511 -0.0707303 0.00849073)
(-0.00612236 -0.0819023 0.00585175)
(-0.00440511 -0.0891922 0.00416459)
(-0.00304278 -0.0921909 0.00313872)
(-0.00167096 -0.090858 0.00231868)
(-0.000525287 -0.0788681 0.00206734)
(0.000124402 -0.0408429 0.0024325)
(2.58655e-05 0.0400311 0.000673066)
(0.000139469 0.0759864 0.000776452)
(0.000197468 0.083828 0.000582103)
(0.000206708 0.0787194 0.000745565)
(0.000101811 0.065322 0.0015739)
(-0.000151373 0.0486446 0.00294917)
(-0.000537608 0.0325105 0.00442693)
(-0.00106144 0.0191707 0.00561706)
(-0.0017666 0.00975927 0.00636641)
(-0.00268908 0.00493267 0.0067701)
(-0.00374384 0.00332828 0.00710141)
(-0.005047 0.00378028 0.00754929)
(-0.00651987 0.00618523 0.00805191)
(-0.00827271 0.0105738 0.00856595)
(-0.0102068 0.0164246 0.00902883)
(-0.0121973 0.0227576 0.00949031)
(-0.0140669 0.0284496 0.0100873)
(-0.0156812 0.0325018 0.0109306)
(-0.0171271 0.0343743 0.0120322)
(-0.0180343 0.0340918 0.0131723)
(-0.0188515 0.0310288 0.0148598)
(-0.0188213 0.0240925 0.015798)
(-0.0180111 0.0114867 0.015117)
(-0.0170546 -0.00090875 0.0125116)
(-0.0146405 -0.0250443 0.00607661)
(-0.0124961 -0.0436757 0.00124943)
(-0.0108697 -0.058448 -0.00218417)
(-0.00965937 -0.0711425 -0.00436669)
(-0.00857767 -0.0821108 -0.00542645)
(-0.00750771 -0.0910027 -0.00555992)
(-0.0062196 -0.0973699 -0.00513437)
(-0.00485737 -0.100384 -0.00459522)
(-0.00319407 -0.0994406 -0.00377652)
(-0.00148518 -0.0868765 -0.00241792)
(-0.000146766 -0.0447617 -0.000566331)
(4.17653e-05 0.0392298 0.000824323)
(0.000176012 0.0754226 0.00160032)
(0.000254984 0.0838085 0.00190533)
(0.000206148 0.0791719 0.00216999)
(9.63241e-05 0.0661655 0.00279496)
(-0.00015573 0.0496962 0.00371616)
(-0.000539155 0.0338347 0.00457558)
(-0.00106924 0.0210486 0.00513065)
(-0.0018535 0.0126724 0.00544716)
(-0.00282585 0.00917516 0.00571753)
(-0.0039023 0.00850757 0.00611254)
(-0.005211 0.0100258 0.00674311)
(-0.0066681 0.0136426 0.0075088)
(-0.00831971 0.0189871 0.00834746)
(-0.0100212 0.024968 0.00919945)
(-0.0116347 0.0303906 0.0100694)
(-0.0130287 0.0342185 0.0109532)
(-0.0142388 0.0359378 0.0117976)
(-0.0149996 0.035589 0.0124375)
(-0.0156282 0.0326568 0.0130937)
(-0.0153797 0.0248601 0.0126459)
(-0.0144105 0.0113235 0.0100887)
(-0.0135717 -0.000572173 0.00703383)
(-0.0118135 -0.0210443 0.00173042)
(-0.0104851 -0.0374292 -0.00144337)
(-0.00975592 -0.0514686 -0.00299299)
(-0.0091404 -0.0645351 -0.00338218)
(-0.00841081 -0.0770335 -0.00305561)
(-0.00753137 -0.0885353 -0.00240142)
(-0.00648277 -0.0982379 -0.00174578)
(-0.00520049 -0.105297 -0.00124512)
(-0.0038965 -0.108842 -0.000876358)
(-0.00246201 -0.108236 -0.000454511)
(-0.00113084 -0.0952627 -8.76545e-05)
(-0.000127852 -0.049523 8.79496e-05)
(7.07425e-05 0.0380463 0.000759135)
(0.000298835 0.0742449 0.00183388)
(0.000363655 0.0832345 0.0022913)
(0.000397954 0.0791654 0.0026324)
(0.000214846 0.0665117 0.00320366)
(-9.22147e-05 0.0502298 0.00367123)
(-0.000549808 0.0347004 0.00390491)
(-0.00112935 0.022653 0.00398548)
(-0.00195647 0.0155081 0.0041323)
(-0.00287153 0.0130101 0.00447125)
(-0.0039539 0.0130442 0.00507416)
(-0.00519692 0.015308 0.00591851)
(-0.00665435 0.0197062 0.00697792)
(-0.00823218 0.0253847 0.00811448)
(-0.00976821 0.0309163 0.00920595)
(-0.0111375 0.0349757 0.0101623)
(-0.0122527 0.03673 0.0108408)
(-0.0130069 0.0363874 0.0111858)
(-0.0135554 0.0331727 0.0111872)
(-0.0131603 0.0248063 0.0098477)
(-0.0122114 0.0126023 0.00734941)
(-0.0115691 0.00199615 0.00491861)
(-0.0104835 -0.0150538 0.00128403)
(-0.00950334 -0.0304134 -0.000962794)
(-0.0089088 -0.0447246 -0.00213983)
(-0.00834265 -0.0585749 -0.002605)
(-0.00765026 -0.0721899 -0.0027048)
(-0.00683706 -0.085155 -0.00268319)
(-0.00591246 -0.0966691 -0.00262022)
(-0.00491128 -0.10598 -0.00252141)
(-0.00380384 -0.112558 -0.00239994)
(-0.00272666 -0.115675 -0.00236566)
(-0.00161534 -0.114209 -0.00237463)
(-0.000660179 -0.0998556 -0.00194987)
(-6.93643e-05 -0.0520237 -0.000723896)
(9.32508e-05 0.0365418 0.000497894)
(0.000380898 0.0724055 0.00151872)
(0.000539783 0.0820574 0.00207605)
(0.000551105 0.0788051 0.00240972)
(0.000466831 0.0672491 0.00248931)
(0.000170936 0.0518208 0.00243581)
(-0.000250466 0.0369378 0.00231443)
(-0.00083323 0.0255641 0.00236858)
(-0.00172775 0.0192385 0.00275361)
(-0.00272764 0.0174046 0.00336506)
(-0.00396254 0.0182227 0.00428208)
(-0.00545312 0.0215669 0.00550631)
(-0.00714127 0.0268821 0.00693043)
(-0.00878361 0.0324747 0.0083038)
(-0.0103052 0.0365718 0.00939725)
(-0.0113615 0.038052 0.00993613)
(-0.0121712 0.0376027 0.0100802)
(-0.0126695 0.0344892 0.00974648)
(-0.0124739 0.0266574 0.00798172)
(-0.0117536 0.0147966 0.00510477)
(-0.0112534 0.00497206 0.00265357)
(-0.0106532 -0.00761531 -0.00040725)
(-0.0099581 -0.0227146 -0.00347305)
(-0.00958859 -0.0370575 -0.00562225)
(-0.00927424 -0.0506758 -0.00678843)
(-0.00888956 -0.064288 -0.00739449)
(-0.00832786 -0.0775663 -0.007571)
(-0.0076068 -0.0900266 -0.0075387)
(-0.00669994 -0.10107 -0.00729229)
(-0.00564399 -0.110055 -0.00687395)
(-0.00440507 -0.116366 -0.00636357)
(-0.0031981 -0.119201 -0.00588291)
(-0.00193243 -0.117411 -0.0052084)
(-0.00079271 -0.102333 -0.0038415)
(-6.58333e-05 -0.0530703 -0.0015223)
(0.000115426 0.0350939 0.000111861)
(0.000420721 0.0705266 0.000747207)
(0.000556188 0.0807523 0.00108114)
(0.000617784 0.0781684 0.00108466)
(0.000492375 0.0673396 0.00116383)
(0.000224467 0.0525549 0.00105431)
(-0.000206091 0.0385145 0.00105752)
(-0.000907728 0.0285097 0.00148201)
(-0.00196553 0.024011 0.00229871)
(-0.0031385 0.0234843 0.00328939)
(-0.00461847 0.0257829 0.00469735)
(-0.00627986 0.0303233 0.00636735)
(-0.0079065 0.0353252 0.00792531)
(-0.00942737 0.0388145 0.00898086)
(-0.0103899 0.0398324 0.00925774)
(-0.0111771 0.0389563 0.00902132)
(-0.0116367 0.035767 0.00816066)
(-0.0115032 0.0287035 0.00572786)
(-0.0110372 0.0188238 0.00245449)
(-0.010668 0.00796793 -0.000839691)
(-0.0104247 -0.00104081 -0.00334371)
(-0.00996951 -0.0141301 -0.00635687)
(-0.00967933 -0.0265511 -0.00807916)
(-0.00962938 -0.038777 -0.00866662)
(-0.00956996 -0.0518486 -0.00892787)
(-0.00941296 -0.0657012 -0.00889587)
(-0.00902473 -0.0799281 -0.00863903)
(-0.00843939 -0.0935693 -0.00791266)
(-0.00752778 -0.105665 -0.00699701)
(-0.00635329 -0.115435 -0.00608254)
(-0.00494907 -0.122102 -0.00527121)
(-0.00359728 -0.124956 -0.00460482)
(-0.00219305 -0.122928 -0.00384411)
(-0.00094322 -0.106829 -0.0027997)
(-8.82119e-05 -0.054936 -0.0012962)
(0.000167045 0.0335828 -0.000333776)
(0.000579113 0.0686584 -0.00027425)
(0.000799134 0.0797259 -0.000186209)
(0.000921386 0.078066 -0.000188853)
(0.000775543 0.0684471 -0.000308223)
(0.000381363 0.054848 -0.000298516)
(-0.000202248 0.0421214 0.000158736)
(-0.00110449 0.0337463 0.0012309)
(-0.00217721 0.0306888 0.00260155)
(-0.00345299 0.0309272 0.00428292)
(-0.00487599 0.033641 0.00613592)
(-0.00630699 0.0374476 0.00779036)
(-0.00763819 0.040344 0.00878102)
(-0.00848923 0.0411626 0.00886281)
(-0.00922477 0.0402353 0.00827182)
(-0.0096212 0.0372665 0.00679147)
(-0.00955947 0.0311585 0.00380222)
(-0.00925907 0.022784 0.000209757)
(-0.00887719 0.0135803 -0.00316339)
(-0.00868139 0.0057579 -0.00561177)
(-0.00845616 -0.00485596 -0.00817991)
(-0.00826333 -0.0157068 -0.00974599)
(-0.00822924 -0.0267006 -0.0103584)
(-0.0081922 -0.0384675 -0.0104432)
(-0.00811384 -0.0514187 -0.0101485)
(-0.00790471 -0.0654591 -0.00949066)
(-0.00762069 -0.0802545 -0.00856418)
(-0.00704624 -0.0950616 -0.00747772)
(-0.00628066 -0.108692 -0.00638381)
(-0.00531202 -0.11963 -0.00544671)
(-0.00415691 -0.127006 -0.00468864)
(-0.00304677 -0.130151 -0.00416716)
(-0.00193213 -0.128057 -0.00368796)
(-0.000918862 -0.111477 -0.00292146)
(-0.000132271 -0.0574775 -0.00142716)
(0.000199305 0.0316896 -0.000603202)
(0.000734974 0.0661333 -0.000893076)
(0.00112057 0.0783128 -0.000932971)
(0.00135712 0.0779615 -0.000984568)
(0.00130352 0.0705706 -0.00103924)
(0.000832229 0.0585188 -0.000875942)
(0.000116926 0.0469123 -9.10571e-05)
(-0.000865621 0.0394112 0.00149516)
(-0.00194973 0.0367392 0.00343808)
(-0.00320565 0.03708 0.00564916)
(-0.00453392 0.039231 0.00766452)
(-0.00584104 0.041444 0.00890605)
(-0.00678038 0.0421931 0.00901344)
(-0.00758237 0.0413714 0.0080824)
(-0.00804067 0.0385669 0.00592708)
(-0.00816862 0.033284 0.00251113)
(-0.00805141 0.026149 -0.001346)
(-0.00782802 0.0180359 -0.00491237)
(-0.00761311 0.00973126 -0.00770229)
(-0.00744142 0.00266805 -0.00936729)
(-0.00726714 -0.00648477 -0.0108708)
(-0.00719309 -0.0161453 -0.0116486)
(-0.00715033 -0.026322 -0.0118026)
(-0.00706342 -0.037591 -0.0116772)
(-0.00691897 -0.0503719 -0.0112433)
(-0.00666238 -0.0645073 -0.0104506)
(-0.00625907 -0.0797163 -0.00939805)
(-0.00569027 -0.0951503 -0.00818165)
(-0.00494624 -0.109493 -0.00706102)
(-0.00406222 -0.12125 -0.00602689)
(-0.00308893 -0.129249 -0.00517869)
(-0.002208 -0.132755 -0.00453726)
(-0.00139591 -0.130837 -0.00387385)
(-0.000664718 -0.114418 -0.00291708)
(-0.000105202 -0.0593347 -0.00137522)
(0.000188856 0.0296016 -0.000893775)
(0.000764439 0.0628391 -0.00177549)
(0.00125652 0.0759439 -0.00218352)
(0.00160987 0.0771291 -0.00236723)
(0.00172902 0.0719462 -0.00251606)
(0.0014882 0.0621408 -0.00208146)
(0.000882881 0.0522512 -0.000535326)
(-4.91696e-05 0.0456764 0.00209043)
(-0.00119839 0.0431638 0.00493891)
(-0.0025316 0.0432285 0.0073836)
(-0.00393665 0.0442325 0.00873195)
(-0.00507625 0.0445928 0.00868532)
(-0.0060537 0.0436481 0.00737206)
(-0.00674799 0.0409902 0.00485501)
(-0.00716278 0.0363514 0.00101399)
(-0.00729926 0.0301169 -0.00350734)
(-0.00731703 0.0231556 -0.00704847)
(-0.00727927 0.0158628 -0.00958976)
(-0.00723837 0.00842948 -0.0112488)
(-0.00718663 0.00183018 -0.0122444)
(-0.00713363 -0.00642382 -0.0128899)
(-0.0071054 -0.0152616 -0.0130314)
(-0.00706052 -0.0249137 -0.0129078)
(-0.00696633 -0.0359651 -0.0124776)
(-0.00679087 -0.0486213 -0.0116407)
(-0.00652082 -0.0630506 -0.010441)
(-0.00610147 -0.0789761 -0.00895675)
(-0.00552096 -0.095421 -0.00738847)
(-0.0047195 -0.110778 -0.00591419)
(-0.00379785 -0.123219 -0.00477794)
(-0.00280117 -0.131451 -0.00392732)
(-0.00193814 -0.134939 -0.00328685)
(-0.00117973 -0.132894 -0.00263497)
(-0.000517824 -0.116189 -0.00191115)
(-5.45937e-05 -0.0601211 -0.000992018)
(0.000151577 0.0280476 -0.000843974)
(0.000670753 0.0603414 -0.00189056)
(0.00115534 0.0740225 -0.00238652)
(0.00154579 0.0762322 -0.00246539)
(0.001757 0.0725855 -0.00217622)
(0.00167351 0.0648222 -0.000933827)
(0.00114146 0.0568077 0.00158317)
(0.000171956 0.0514882 0.00486222)
(-0.00112564 0.0492947 0.00763339)
(-0.00253761 0.0487972 0.00895364)
(-0.00386163 0.0484803 0.00849866)
(-0.00498214 0.0473697 0.00624192)
(-0.00585982 0.0448918 0.00242226)
(-0.00640616 0.0409015 -0.00215332)
(-0.00673114 0.035586 -0.00595083)
(-0.0069376 0.0293794 -0.00869151)
(-0.00703751 0.022665 -0.0110812)
(-0.00708259 0.0156715 -0.012834)
(-0.00707237 0.00865679 -0.0139371)
(-0.00700208 0.00247678 -0.0143717)
(-0.00689891 -0.00500959 -0.0144457)
(-0.00682052 -0.0132254 -0.0141612)
(-0.00672475 -0.0224847 -0.0136504)
(-0.00662093 -0.033281 -0.0128777)
(-0.00650868 -0.0459292 -0.0117233)
(-0.00636999 -0.0607393 -0.0102337)
(-0.00615421 -0.0775568 -0.00849921)
(-0.00577616 -0.0953654 -0.00662709)
(-0.00516026 -0.112253 -0.00464811)
(-0.00434591 -0.126064 -0.00337821)
(-0.00332741 -0.134903 -0.00254275)
(-0.0024074 -0.138483 -0.00196829)
(-0.0015581 -0.136427 -0.00138858)
(-0.000751644 -0.119358 -0.000930123)
(-7.32064e-05 -0.0614345 -0.000698552)
(0.000128781 0.026514 -0.000613956)
(0.000661326 0.057833 -0.00135596)
(0.00120961 0.071973 -0.00149056)
(0.00166181 0.07512 -0.000973823)
(0.00189774 0.072682 0.000233343)
(0.00185504 0.066948 0.00193595)
(0.00131014 0.0608864 0.00460803)
(0.000285288 0.0568324 0.00707505)
(-0.000988741 0.0548354 0.00813364)
(-0.00227039 0.053674 0.007463)
(-0.00344306 0.0522695 0.00525315)
(-0.00442719 0.0499313 0.0019119)
(-0.00515992 0.0463378 -0.00202437)
(-0.00568173 0.0415111 -0.00589602)
(-0.00599398 0.0358552 -0.00952418)
(-0.00616535 0.029688 -0.0124272)
(-0.00624424 0.023148 -0.0143617)
(-0.00623041 0.0163472 -0.0155659)
(-0.00614023 0.00967981 -0.0161213)
(-0.005944 0.00324672 -0.0161794)
(-0.00568371 -0.0031135 -0.0158963)
(-0.00542119 -0.0107951 -0.0153934)
(-0.00518762 -0.0193813 -0.0146995)
(-0.00500805 -0.029336 -0.0137147)
(-0.00492397 -0.0412963 -0.0123351)
(-0.00494626 -0.0558988 -0.0105124)
(-0.00502186 -0.0733325 -0.00822865)
(-0.005044 -0.0928133 -0.00564697)
(-0.00486325 -0.112399 -0.00323769)
(-0.00436074 -0.128835 -0.00115174)
(-0.00354976 -0.139393 2.38361e-05)
(-0.00272095 -0.143709 0.000713598)
(-0.00190164 -0.142132 0.00132647)
(-0.00103652 -0.125069 0.0013971)
(-0.000136695 -0.0643415 0.000130997)
(8.79091e-05 0.0249576 -0.000244532)
(0.000579165 0.0551685 -0.000472855)
(0.0011271 0.0695622 -0.000175574)
(0.00155277 0.073604 0.000761648)
(0.00175833 0.072472 0.00223557)
(0.00165097 0.0684547 0.00419825)
(0.00102511 0.0643167 0.00629973)
(8.44686e-06 0.0614647 0.00741686)
(-0.00113784 0.0596273 0.00692276)
(-0.00224206 0.0579456 0.00481011)
(-0.00320442 0.0557094 0.00137845)
(-0.00394997 0.0525072 -0.0027735)
(-0.00446105 0.0482506 -0.00694751)
(-0.00478253 0.0430982 -0.0106037)
(-0.00495079 0.0373099 -0.0134594)
(-0.0049801 0.0310526 -0.0155089)
(-0.00490257 0.024436 -0.0168923)
(-0.00472164 0.0177419 -0.0176227)
(-0.00444878 0.0111079 -0.0178229)
(-0.0040894 0.00461906 -0.0176015)
(-0.00367382 -0.00147163 -0.0170649)
(-0.00321272 -0.00840871 -0.0163151)
(-0.00281581 -0.0161888 -0.015361)
(-0.00251287 -0.0251225 -0.014064)
(-0.00236293 -0.0359798 -0.0123205)
(-0.00243424 -0.0496771 -0.00991534)
(-0.00245933 -0.0667328 -0.00662709)
(-0.00257357 -0.0874854 -0.00297174)
(-0.00262075 -0.109886 0.000483652)
(-0.00266388 -0.130041 0.00276158)
(-0.00227437 -0.143534 0.00440026)
(-0.00188397 -0.149358 0.00523904)
(-0.00145532 -0.148637 0.0056888)
(-0.000902352 -0.132115 0.00506901)
(-0.000121887 -0.0684679 0.00168172)
(8.15559e-05 0.0235324 0.00021884)
(0.000559267 0.052782 0.000750171)
(0.00107656 0.0675752 0.00169159)
(0.00142651 0.0726225 0.00302421)
(0.00155229 0.0727018 0.00449633)
(0.00130975 0.0705627 0.00630757)
(0.000651341 0.067859 0.00726238)
(-0.000243856 0.065531 0.00671655)
(-0.00117106 0.0634202 0.00457343)
(-0.00201006 0.0610545 0.00110394)
(-0.00266911 0.0580256 -0.00312954)
(-0.00311389 0.0541354 -0.00742555)
(-0.00337186 0.0494245 -0.0112009)
(-0.00347441 0.0440499 -0.0141706)
(-0.00344613 0.0381178 -0.0163494)
(-0.00330613 0.0317211 -0.0178601)
(-0.00307693 0.0251098 -0.0187175)
(-0.00277957 0.0185455 -0.0189499)
(-0.00243137 0.0121561 -0.0186657)
(-0.00203591 0.00596872 -0.0179658)
(-0.00161399 -8.77411e-05 -0.0171024)
(-0.00117352 -0.00654346 -0.0160058)
(-0.000794658 -0.0135548 -0.014673)
(-0.000509358 -0.0216323 -0.0129376)
(-0.000262475 -0.0315142 -0.0105696)
(7.93737e-05 -0.044708 -0.00748841)
(0.000177343 -0.0629668 -0.00416423)
(0.000222134 -0.0851786 -0.000370417)
(0.000270833 -0.108851 0.00360517)
(0.000373305 -0.13016 0.00754101)
(0.000117853 -0.145784 0.00970299)
(-1.09484e-05 -0.153436 0.0105277)
(-0.000151302 -0.153633 0.0105337)
(-0.000206388 -0.138155 0.00908512)
(-0.000103156 -0.0726299 0.00352399)
(6.93576e-05 0.0219838 0.000566739)
(0.000488411 0.0499747 0.00160751)
(0.000945912 0.0651043 0.00293941)
(0.00127202 0.071297 0.00452412)
(0.00131692 0.0726932 0.00602728)
(0.00106076 0.0719447 0.00699693)
(0.000521393 0.0702803 0.00691533)
(-0.000154566 0.0683217 0.00541126)
(-0.000832599 0.0660901 0.00251691)
(-0.00140416 0.0633746 -0.00138294)
(-0.00181423 0.0599724 -0.00563015)
(-0.00205671 0.0558333 -0.00955241)
(-0.0021461 0.0510332 -0.0127454)
(-0.00211386 0.0456594 -0.0151275)
(-0.00198741 0.0397825 -0.0167792)
(-0.00179831 0.0335104 -0.0178116)
(-0.00157709 0.0271715 -0.0181341)
(-0.00134672 0.02092 -0.0178576)
(-0.00113136 0.0148194 -0.0170912)
(-0.000916279 0.00875491 -0.016047)
(-0.000715753 0.00277898 -0.0147479)
(-0.000555036 -0.0032941 -0.0132453)
(-0.000428342 -0.00993379 -0.0114482)
(-0.000307359 -0.0179802 -0.00913834)
(-5.81202e-05 -0.0290278 -0.00644586)
(0.000417522 -0.0442282 -0.00323541)
(0.00107649 -0.0637358 0.00097745)
(0.00180224 -0.0865303 0.00559892)
(0.00237671 -0.110321 0.00972742)
(0.00253555 -0.131811 0.012606)
(0.00230285 -0.147387 0.0141016)
(0.00179082 -0.155319 0.0144095)
(0.00121334 -0.15559 0.0136877)
(0.00050522 -0.139794 0.0107459)
(4.17144e-05 -0.0737476 0.00432981)
(4.62706e-05 0.0211348 0.00097447)
(0.000250275 0.0481186 0.00249581)
(0.000458995 0.063354 0.00401047)
(0.000502781 0.070456 0.00545742)
(0.000439607 0.0728778 0.00640715)
(9.08029e-05 0.073004 0.00656534)
(-0.000418014 0.0719441 0.0055881)
(-0.00100614 0.0701649 0.00332515)
(-0.0015704 0.0677941 -3.02555e-05)
(-0.00203259 0.0648025 -0.00395459)
(-0.00235868 0.0611588 -0.00778175)
(-0.00254518 0.0568953 -0.0110088)
(-0.00261919 0.0520727 -0.0134445)
(-0.00260701 0.0467567 -0.0151076)
(-0.00254696 0.0410387 -0.0160978)
(-0.00246911 0.0351836 -0.0163513)
(-0.00241146 0.0293429 -0.0159678)
(-0.00239125 0.0235933 -0.0150677)
(-0.00241855 0.0179587 -0.0137612)